 Entering Gaussian System, Link 0=g16
 Input=IFA.gjf
 Output=IFA.log
 Initial command:
 /opt/software/custom/apps/gaussian/x86_64-legacy/g16/l1.exe "/scratch/global/Gau-469046.inp" -scrdir="/scratch/global/"
 Entering Link 1 = /opt/software/custom/apps/gaussian/x86_64-legacy/g16/l1.exe PID=    469047.
  
 Copyright (c) 1988-2017, Gaussian, Inc.  All Rights Reserved.
  
 This is part of the Gaussian(R) 16 program.  It is based on
 the Gaussian(R) 09 system (copyright 2009, Gaussian, Inc.),
 the Gaussian(R) 03 system (copyright 2003, Gaussian, Inc.),
 the Gaussian(R) 98 system (copyright 1998, Gaussian, Inc.),
 the Gaussian(R) 94 system (copyright 1995, Gaussian, Inc.),
 the Gaussian 92(TM) system (copyright 1992, Gaussian, Inc.),
 the Gaussian 90(TM) system (copyright 1990, Gaussian, Inc.),
 the Gaussian 88(TM) system (copyright 1988, Gaussian, Inc.),
 the Gaussian 86(TM) system (copyright 1986, Carnegie Mellon
 University), and the Gaussian 82(TM) system (copyright 1983,
 Carnegie Mellon University). Gaussian is a federally registered
 trademark of Gaussian, Inc.
  
 This software contains proprietary and confidential information,
 including trade secrets, belonging to Gaussian, Inc.
  
 This software is provided under written license and may be
 used, copied, transmitted, or stored only in accord with that
 written license.
  
 The following legend is applicable only to US Government
 contracts under FAR:
  
                    RESTRICTED RIGHTS LEGEND
  
 Use, reproduction and disclosure by the US Government is
 subject to restrictions as set forth in subparagraphs (a)
 and (c) of the Commercial Computer Software - Restricted
 Rights clause in FAR 52.227-19.
  
 Gaussian, Inc.
 340 Quinnipiac St., Bldg. 40, Wallingford CT 06492
  
  
 ---------------------------------------------------------------
 Warning -- This program may not be used in any manner that
 competes with the business of Gaussian, Inc. or will provide
 assistance to any competitor of Gaussian, Inc.  The licensee
 of this program is prohibited from giving any competitor of
 Gaussian, Inc. access to this program.  By using this program,
 the user acknowledges that Gaussian, Inc. is engaged in the
 business of creating and licensing software in the field of
 computational chemistry and represents and warrants to the
 licensee that it is not a competitor of Gaussian, Inc. and that
 it will not use this program in any manner prohibited above.
 ---------------------------------------------------------------
  

 Cite this work as:
 Gaussian 16, Revision B.01,
 M. J. Frisch, G. W. Trucks, H. B. Schlegel, G. E. Scuseria, 
 M. A. Robb, J. R. Cheeseman, G. Scalmani, V. Barone, 
 G. A. Petersson, H. Nakatsuji, X. Li, M. Caricato, A. V. Marenich, 
 J. Bloino, B. G. Janesko, R. Gomperts, B. Mennucci, H. P. Hratchian, 
 J. V. Ortiz, A. F. Izmaylov, J. L. Sonnenberg, D. Williams-Young, 
 F. Ding, F. Lipparini, F. Egidi, J. Goings, B. Peng, A. Petrone, 
 T. Henderson, D. Ranasinghe, V. G. Zakrzewski, J. Gao, N. Rega, 
 G. Zheng, W. Liang, M. Hada, M. Ehara, K. Toyota, R. Fukuda, 
 J. Hasegawa, M. Ishida, T. Nakajima, Y. Honda, O. Kitao, H. Nakai, 
 T. Vreven, K. Throssell, J. A. Montgomery, Jr., J. E. Peralta, 
 F. Ogliaro, M. J. Bearpark, J. J. Heyd, E. N. Brothers, K. N. Kudin, 
 V. N. Staroverov, T. A. Keith, R. Kobayashi, J. Normand, 
 K. Raghavachari, A. P. Rendell, J. C. Burant, S. S. Iyengar, 
 J. Tomasi, M. Cossi, J. M. Millam, M. Klene, C. Adamo, R. Cammi, 
 J. W. Ochterski, R. L. Martin, K. Morokuma, O. Farkas, 
 J. B. Foresman, and D. J. Fox, Gaussian, Inc., Wallingford CT, 2016.
 
 ******************************************
 Gaussian 16:  EM64L-G16RevB.01 20-Dec-2017
                 9-Jun-2025 
 ******************************************
 %nprocshared=20
 Will use up to   20 processors via shared memory.
 %mem=40GB
 %chk=IFA.chk
 ---------------------
 #p opt M062X/6-31g(d)
 ---------------------
 1/18=20,19=15,26=3,38=1/1,3;
 2/9=110,12=2,17=6,18=5,40=1/2;
 3/5=1,6=6,7=1,11=2,25=1,30=1,71=1,74=-55/1,2,3;
 4//1;
 5/5=2,38=5/2;
 6/7=2,8=2,9=2,10=2,28=1/1;
 7//1,2,3,16;
 1/18=20,19=15,26=3/3(2);
 2/9=110/2;
 99//99;
 2/9=110/2;
 3/5=1,6=6,7=1,11=2,25=1,30=1,71=1,74=-55/1,2,3;
 4/5=5,16=3,69=1/1;
 5/5=2,38=5/2;
 7//1,2,3,16;
 1/18=20,19=15,26=3/3(-5);
 2/9=110/2;
 6/7=2,8=2,9=2,10=2,19=2,28=1/1;
 99/9=1/99;
 Leave Link    1 at Mon Jun  9 11:15:36 2025, MaxMem=  5368709120 cpu:               1.2 elap:               0.1
 (Enter /opt/software/custom/apps/gaussian/x86_64-legacy/g16/l101.exe)
 -------
 9568614
 -------
 Symbolic Z-matrix:
 Charge =  0 Multiplicity = 1
 S                     0.2801    0.7535   -0.8506 
 O                     5.6794   -1.1955   -0.9123 
 O                     0.4081    2.2558   -0.6932 
 O                    -7.1755   -0.0818    0.1881 
 N                    -2.5021    1.0087   -0.7845 
 N                    -1.7127   -0.8258    0.1906 
 N                     3.0761    1.369     1.0722 
 C                     1.1694   -0.0051    0.5395 
 C                     2.6468    0.2481    0.4571 
 C                     3.4646   -0.6395   -0.2162 
 C                    -1.397     0.2748   -0.4545 
 C                    -3.6044    0.3372   -0.3214 
 C                     4.825    -0.3558   -0.2617 
 C                    -3.0854   -0.8042    0.2831 
 C                     5.3119    0.7892    0.359 
 C                     2.9178   -1.8613   -0.8742 
 C                    -4.9692    0.6215   -0.3779 
 C                     4.4044    1.6116    1.0067 
 C                    -3.9657   -1.728     0.8715 
 C                    -5.831    -0.3087    0.2126 
 C                    -5.3402   -1.4632    0.8268 
 C                     6.7596    1.1374    0.3384 
 C                     6.2584   -2.2501   -0.147 
 C                    -7.6182    1.1125   -0.4522 
 H                     0.9382   -1.0732    0.5874 
 H                     0.7773    0.4397    1.4622 
 H                    -2.508     1.89     -1.2809 
 H                     2.0479   -1.6273   -1.4953 
 H                     3.6374   -2.3358   -1.5489 
 H                     2.6356   -2.6038   -0.1206 
 H                    -5.2844    1.5331   -0.8681 
 H                     4.7214    2.519     1.5115 
 H                    -3.5942   -2.628     1.3511 
 H                    -6.0299   -2.1719    1.2795 
 H                     6.917     2.1997    0.5559 
 H                     7.3017    0.554     1.0889 
 H                     7.1977    0.9493   -0.6474 
 H                     6.8888   -2.8473   -0.8116 
 H                     5.4829   -2.8986    0.2725 
 H                     6.8829   -1.8494    0.657 
 H                    -7.2494    2.0067    0.0619 
 H                    -8.7106    1.1319   -0.3795 
 H                    -7.3705    1.114    -1.5192 
 
 ITRead=  0  0  0  0  0  0  0  0  0  0  0  0  0  0  0  0  0  0  0  0
 ITRead=  0  0  0  0  0  0  0  0  0  0  0  0  0  0  0  0  0  0  0  0
 ITRead=  0  0  0
 MicOpt= -1 -1 -1 -1 -1 -1 -1 -1 -1 -1 -1 -1 -1 -1 -1 -1 -1 -1 -1 -1
 MicOpt= -1 -1 -1 -1 -1 -1 -1 -1 -1 -1 -1 -1 -1 -1 -1 -1 -1 -1 -1 -1
 MicOpt= -1 -1 -1
 NAtoms=     43 NQM=       43 NQMF=       0 NMMI=      0 NMMIF=      0
                NMic=       0 NMicF=      0.
                    Isotopes and Nuclear Properties:
 (Nuclear quadrupole moments (NQMom) in fm**2, nuclear magnetic moments (NMagM)
  in nuclear magnetons)

  Atom         1           2           3           4           5           6           7           8           9          10
 IAtWgt=          32          16          16          16          14          14          14          12          12          12
 AtmWgt=  31.9720718  15.9949146  15.9949146  15.9949146  14.0030740  14.0030740  14.0030740  12.0000000  12.0000000  12.0000000
 NucSpn=           0           0           0           0           2           2           2           0           0           0
 AtZEff=  -0.0000000  -0.0000000  -0.0000000  -0.0000000  -0.0000000  -0.0000000  -0.0000000  -0.0000000  -0.0000000  -0.0000000
 NQMom=    0.0000000   0.0000000   0.0000000   0.0000000   2.0440000   2.0440000   2.0440000   0.0000000   0.0000000   0.0000000
 NMagM=    0.0000000   0.0000000   0.0000000   0.0000000   0.4037610   0.4037610   0.4037610   0.0000000   0.0000000   0.0000000
 AtZNuc=  16.0000000   8.0000000   8.0000000   8.0000000   7.0000000   7.0000000   7.0000000   6.0000000   6.0000000   6.0000000

  Atom        11          12          13          14          15          16          17          18          19          20
 IAtWgt=          12          12          12          12          12          12          12          12          12          12
 AtmWgt=  12.0000000  12.0000000  12.0000000  12.0000000  12.0000000  12.0000000  12.0000000  12.0000000  12.0000000  12.0000000
 NucSpn=           0           0           0           0           0           0           0           0           0           0
 AtZEff=  -0.0000000  -0.0000000  -0.0000000  -0.0000000  -0.0000000  -0.0000000  -0.0000000  -0.0000000  -0.0000000  -0.0000000
 NQMom=    0.0000000   0.0000000   0.0000000   0.0000000   0.0000000   0.0000000   0.0000000   0.0000000   0.0000000   0.0000000
 NMagM=    0.0000000   0.0000000   0.0000000   0.0000000   0.0000000   0.0000000   0.0000000   0.0000000   0.0000000   0.0000000
 AtZNuc=   6.0000000   6.0000000   6.0000000   6.0000000   6.0000000   6.0000000   6.0000000   6.0000000   6.0000000   6.0000000

  Atom        21          22          23          24          25          26          27          28          29          30
 IAtWgt=          12          12          12          12           1           1           1           1           1           1
 AtmWgt=  12.0000000  12.0000000  12.0000000  12.0000000   1.0078250   1.0078250   1.0078250   1.0078250   1.0078250   1.0078250
 NucSpn=           0           0           0           0           1           1           1           1           1           1
 AtZEff=  -0.0000000  -0.0000000  -0.0000000  -0.0000000  -0.0000000  -0.0000000  -0.0000000  -0.0000000  -0.0000000  -0.0000000
 NQMom=    0.0000000   0.0000000   0.0000000   0.0000000   0.0000000   0.0000000   0.0000000   0.0000000   0.0000000   0.0000000
 NMagM=    0.0000000   0.0000000   0.0000000   0.0000000   2.7928460   2.7928460   2.7928460   2.7928460   2.7928460   2.7928460
 AtZNuc=   6.0000000   6.0000000   6.0000000   6.0000000   1.0000000   1.0000000   1.0000000   1.0000000   1.0000000   1.0000000

  Atom        31          32          33          34          35          36          37          38          39          40
 IAtWgt=           1           1           1           1           1           1           1           1           1           1
 AtmWgt=   1.0078250   1.0078250   1.0078250   1.0078250   1.0078250   1.0078250   1.0078250   1.0078250   1.0078250   1.0078250
 NucSpn=           1           1           1           1           1           1           1           1           1           1
 AtZEff=  -0.0000000  -0.0000000  -0.0000000  -0.0000000  -0.0000000  -0.0000000  -0.0000000  -0.0000000  -0.0000000  -0.0000000
 NQMom=    0.0000000   0.0000000   0.0000000   0.0000000   0.0000000   0.0000000   0.0000000   0.0000000   0.0000000   0.0000000
 NMagM=    2.7928460   2.7928460   2.7928460   2.7928460   2.7928460   2.7928460   2.7928460   2.7928460   2.7928460   2.7928460
 AtZNuc=   1.0000000   1.0000000   1.0000000   1.0000000   1.0000000   1.0000000   1.0000000   1.0000000   1.0000000   1.0000000

  Atom        41          42          43
 IAtWgt=           1           1           1
 AtmWgt=   1.0078250   1.0078250   1.0078250
 NucSpn=           1           1           1
 AtZEff=  -0.0000000  -0.0000000  -0.0000000
 NQMom=    0.0000000   0.0000000   0.0000000
 NMagM=    2.7928460   2.7928460   2.7928460
 AtZNuc=   1.0000000   1.0000000   1.0000000
 Leave Link  101 at Mon Jun  9 11:15:36 2025, MaxMem=  5368709120 cpu:               7.0 elap:               0.4
 (Enter /opt/software/custom/apps/gaussian/x86_64-legacy/g16/l103.exe)

 GradGradGradGradGradGradGradGradGradGradGradGradGradGradGradGradGradGrad
 Berny optimization.
 Initialization pass.
                           ----------------------------
                           !    Initial Parameters    !
                           ! (Angstroms and Degrees)  !
 --------------------------                            --------------------------
 ! Name  Definition              Value          Derivative Info.                !
 --------------------------------------------------------------------------------
 ! R1    R(1,3)                  1.5159         estimate D2E/DX2                !
 ! R2    R(1,8)                  1.8162         estimate D2E/DX2                !
 ! R3    R(1,11)                 1.7885         estimate D2E/DX2                !
 ! R4    R(2,13)                 1.3632         estimate D2E/DX2                !
 ! R5    R(2,23)                 1.4259         estimate D2E/DX2                !
 ! R6    R(4,20)                 1.3637         estimate D2E/DX2                !
 ! R7    R(4,24)                 1.4256         estimate D2E/DX2                !
 ! R8    R(5,11)                 1.367          estimate D2E/DX2                !
 ! R9    R(5,12)                 1.3713         estimate D2E/DX2                !
 ! R10   R(5,27)                 1.0115         estimate D2E/DX2                !
 ! R11   R(6,11)                 1.3142         estimate D2E/DX2                !
 ! R12   R(6,14)                 1.376          estimate D2E/DX2                !
 ! R13   R(7,9)                  1.3487         estimate D2E/DX2                !
 ! R14   R(7,18)                 1.3519         estimate D2E/DX2                !
 ! R15   R(8,9)                  1.5012         estimate D2E/DX2                !
 ! R16   R(8,25)                 1.0939         estimate D2E/DX2                !
 ! R17   R(8,26)                 1.0968         estimate D2E/DX2                !
 ! R18   R(9,10)                 1.382          estimate D2E/DX2                !
 ! R19   R(10,13)                1.3904         estimate D2E/DX2                !
 ! R20   R(10,16)                1.4916         estimate D2E/DX2                !
 ! R21   R(12,14)                1.392          estimate D2E/DX2                !
 ! R22   R(12,17)                1.3952         estimate D2E/DX2                !
 ! R23   R(13,15)                1.3905         estimate D2E/DX2                !
 ! R24   R(14,19)                1.4052         estimate D2E/DX2                !
 ! R25   R(15,18)                1.3854         estimate D2E/DX2                !
 ! R26   R(15,22)                1.4891         estimate D2E/DX2                !
 ! R27   R(16,28)                1.0942         estimate D2E/DX2                !
 ! R28   R(16,29)                1.0946         estimate D2E/DX2                !
 ! R29   R(16,30)                1.0949         estimate D2E/DX2                !
 ! R30   R(17,20)                1.3988         estimate D2E/DX2                !
 ! R31   R(17,31)                1.082          estimate D2E/DX2                !
 ! R32   R(18,32)                1.0857         estimate D2E/DX2                !
 ! R33   R(19,21)                1.4005         estimate D2E/DX2                !
 ! R34   R(19,33)                1.0854         estimate D2E/DX2                !
 ! R35   R(20,21)                1.3968         estimate D2E/DX2                !
 ! R36   R(21,34)                1.0876         estimate D2E/DX2                !
 ! R37   R(22,35)                1.0957         estimate D2E/DX2                !
 ! R38   R(22,36)                1.0943         estimate D2E/DX2                !
 ! R39   R(22,37)                1.095          estimate D2E/DX2                !
 ! R40   R(23,38)                1.0935         estimate D2E/DX2                !
 ! R41   R(23,39)                1.0945         estimate D2E/DX2                !
 ! R42   R(23,40)                1.0941         estimate D2E/DX2                !
 ! R43   R(24,41)                1.0954         estimate D2E/DX2                !
 ! R44   R(24,42)                1.095          estimate D2E/DX2                !
 ! R45   R(24,43)                1.0954         estimate D2E/DX2                !
 ! A1    A(3,1,8)              107.0441         estimate D2E/DX2                !
 ! A2    A(3,1,11)             108.7494         estimate D2E/DX2                !
 ! A3    A(8,1,11)             100.244          estimate D2E/DX2                !
 ! A4    A(13,2,23)            116.9962         estimate D2E/DX2                !
 ! A5    A(20,4,24)            116.9758         estimate D2E/DX2                !
 ! A6    A(11,5,12)            107.7827         estimate D2E/DX2                !
 ! A7    A(11,5,27)            126.2236         estimate D2E/DX2                !
 ! A8    A(12,5,27)            125.9937         estimate D2E/DX2                !
 ! A9    A(11,6,14)            105.0404         estimate D2E/DX2                !
 ! A10   A(9,7,18)             116.091          estimate D2E/DX2                !
 ! A11   A(1,8,9)              111.6797         estimate D2E/DX2                !
 ! A12   A(1,8,25)             109.7464         estimate D2E/DX2                !
 ! A13   A(1,8,26)             107.4248         estimate D2E/DX2                !
 ! A14   A(9,8,25)             112.0304         estimate D2E/DX2                !
 ! A15   A(9,8,26)             109.2446         estimate D2E/DX2                !
 ! A16   A(25,8,26)            106.4744         estimate D2E/DX2                !
 ! A17   A(7,9,8)              115.3657         estimate D2E/DX2                !
 ! A18   A(7,9,10)             124.5828         estimate D2E/DX2                !
 ! A19   A(8,9,10)             120.0515         estimate D2E/DX2                !
 ! A20   A(9,10,13)            117.6371         estimate D2E/DX2                !
 ! A21   A(9,10,16)            121.6067         estimate D2E/DX2                !
 ! A22   A(13,10,16)           120.7561         estimate D2E/DX2                !
 ! A23   A(1,11,5)             124.1175         estimate D2E/DX2                !
 ! A24   A(1,11,6)             123.9261         estimate D2E/DX2                !
 ! A25   A(5,11,6)             111.9564         estimate D2E/DX2                !
 ! A26   A(5,12,14)            104.3877         estimate D2E/DX2                !
 ! A27   A(5,12,17)            132.2872         estimate D2E/DX2                !
 ! A28   A(14,12,17)           123.3251         estimate D2E/DX2                !
 ! A29   A(2,13,10)            120.2091         estimate D2E/DX2                !
 ! A30   A(2,13,15)            120.0533         estimate D2E/DX2                !
 ! A31   A(10,13,15)           119.7376         estimate D2E/DX2                !
 ! A32   A(6,14,12)            110.8328         estimate D2E/DX2                !
 ! A33   A(6,14,19)            130.0009         estimate D2E/DX2                !
 ! A34   A(12,14,19)           119.1663         estimate D2E/DX2                !
 ! A35   A(13,15,18)           117.9136         estimate D2E/DX2                !
 ! A36   A(13,15,22)           121.7899         estimate D2E/DX2                !
 ! A37   A(18,15,22)           120.2964         estimate D2E/DX2                !
 ! A38   A(10,16,28)           111.5112         estimate D2E/DX2                !
 ! A39   A(10,16,29)           112.7058         estimate D2E/DX2                !
 ! A40   A(10,16,30)           110.2637         estimate D2E/DX2                !
 ! A41   A(28,16,29)           105.3948         estimate D2E/DX2                !
 ! A42   A(28,16,30)           109.3176         estimate D2E/DX2                !
 ! A43   A(29,16,30)           107.4401         estimate D2E/DX2                !
 ! A44   A(12,17,20)           116.7474         estimate D2E/DX2                !
 ! A45   A(12,17,31)           118.3587         estimate D2E/DX2                !
 ! A46   A(20,17,31)           124.894          estimate D2E/DX2                !
 ! A47   A(7,18,15)            124.0379         estimate D2E/DX2                !
 ! A48   A(7,18,32)            114.4788         estimate D2E/DX2                !
 ! A49   A(15,18,32)           121.4832         estimate D2E/DX2                !
 ! A50   A(14,19,21)           118.5008         estimate D2E/DX2                !
 ! A51   A(14,19,33)           121.0472         estimate D2E/DX2                !
 ! A52   A(21,19,33)           120.452          estimate D2E/DX2                !
 ! A53   A(4,20,17)            119.2868         estimate D2E/DX2                !
 ! A54   A(4,20,21)            119.462          estimate D2E/DX2                !
 ! A55   A(17,20,21)           121.2512         estimate D2E/DX2                !
 ! A56   A(19,21,20)           121.0091         estimate D2E/DX2                !
 ! A57   A(19,21,34)           119.0707         estimate D2E/DX2                !
 ! A58   A(20,21,34)           119.9202         estimate D2E/DX2                !
 ! A59   A(15,22,35)           111.322          estimate D2E/DX2                !
 ! A60   A(15,22,36)           110.3319         estimate D2E/DX2                !
 ! A61   A(15,22,37)           111.176          estimate D2E/DX2                !
 ! A62   A(35,22,36)           108.0336         estimate D2E/DX2                !
 ! A63   A(35,22,37)           106.7243         estimate D2E/DX2                !
 ! A64   A(36,22,37)           109.1257         estimate D2E/DX2                !
 ! A65   A(2,23,38)            108.1691         estimate D2E/DX2                !
 ! A66   A(2,23,39)            110.8688         estimate D2E/DX2                !
 ! A67   A(2,23,40)            110.8135         estimate D2E/DX2                !
 ! A68   A(38,23,39)           108.5317         estimate D2E/DX2                !
 ! A69   A(38,23,40)           108.5172         estimate D2E/DX2                !
 ! A70   A(39,23,40)           109.8637         estimate D2E/DX2                !
 ! A71   A(4,24,41)            111.625          estimate D2E/DX2                !
 ! A72   A(4,24,42)            107.1471         estimate D2E/DX2                !
 ! A73   A(4,24,43)            111.6192         estimate D2E/DX2                !
 ! A74   A(41,24,42)           106.8736         estimate D2E/DX2                !
 ! A75   A(41,24,43)           112.3285         estimate D2E/DX2                !
 ! A76   A(42,24,43)           106.8728         estimate D2E/DX2                !
 ! D1    D(3,1,8,9)            -66.6015         estimate D2E/DX2                !
 ! D2    D(3,1,8,25)           168.5386         estimate D2E/DX2                !
 ! D3    D(3,1,8,26)            53.1687         estimate D2E/DX2                !
 ! D4    D(11,1,8,9)          -179.9951         estimate D2E/DX2                !
 ! D5    D(11,1,8,25)           55.145          estimate D2E/DX2                !
 ! D6    D(11,1,8,26)          -60.225          estimate D2E/DX2                !
 ! D7    D(3,1,11,5)            37.8539         estimate D2E/DX2                !
 ! D8    D(3,1,11,6)          -142.0816         estimate D2E/DX2                !
 ! D9    D(8,1,11,5)           149.9334         estimate D2E/DX2                !
 ! D10   D(8,1,11,6)           -30.0022         estimate D2E/DX2                !
 ! D11   D(23,2,13,10)         -90.0319         estimate D2E/DX2                !
 ! D12   D(23,2,13,15)          89.9952         estimate D2E/DX2                !
 ! D13   D(13,2,23,38)         178.2952         estimate D2E/DX2                !
 ! D14   D(13,2,23,39)          59.4065         estimate D2E/DX2                !
 ! D15   D(13,2,23,40)         -62.8661         estimate D2E/DX2                !
 ! D16   D(24,4,20,17)           0.0494         estimate D2E/DX2                !
 ! D17   D(24,4,20,21)         179.9966         estimate D2E/DX2                !
 ! D18   D(20,4,24,41)         -63.3414         estimate D2E/DX2                !
 ! D19   D(20,4,24,42)         179.9741         estimate D2E/DX2                !
 ! D20   D(20,4,24,43)          63.2938         estimate D2E/DX2                !
 ! D21   D(12,5,11,1)         -179.9328         estimate D2E/DX2                !
 ! D22   D(12,5,11,6)            0.0096         estimate D2E/DX2                !
 ! D23   D(27,5,11,1)            0.0293         estimate D2E/DX2                !
 ! D24   D(27,5,11,6)          179.9716         estimate D2E/DX2                !
 ! D25   D(11,5,12,14)          -0.008          estimate D2E/DX2                !
 ! D26   D(11,5,12,17)        -179.9956         estimate D2E/DX2                !
 ! D27   D(27,5,12,14)        -179.9701         estimate D2E/DX2                !
 ! D28   D(27,5,12,17)           0.0422         estimate D2E/DX2                !
 ! D29   D(14,6,11,1)          179.9358         estimate D2E/DX2                !
 ! D30   D(14,6,11,5)           -0.0067         estimate D2E/DX2                !
 ! D31   D(11,6,14,12)           0.0014         estimate D2E/DX2                !
 ! D32   D(11,6,14,19)        -179.9999         estimate D2E/DX2                !
 ! D33   D(18,7,9,8)          -179.9785         estimate D2E/DX2                !
 ! D34   D(18,7,9,10)           -0.0034         estimate D2E/DX2                !
 ! D35   D(9,7,18,15)           -0.0063         estimate D2E/DX2                !
 ! D36   D(9,7,18,32)         -179.9044         estimate D2E/DX2                !
 ! D37   D(1,8,9,7)             89.9679         estimate D2E/DX2                !
 ! D38   D(1,8,9,10)           -90.0084         estimate D2E/DX2                !
 ! D39   D(25,8,9,7)          -146.4539         estimate D2E/DX2                !
 ! D40   D(25,8,9,10)           33.5698         estimate D2E/DX2                !
 ! D41   D(26,8,9,7)           -28.7245         estimate D2E/DX2                !
 ! D42   D(26,8,9,10)          151.2992         estimate D2E/DX2                !
 ! D43   D(7,9,10,13)            0.0064         estimate D2E/DX2                !
 ! D44   D(7,9,10,16)         -179.9918         estimate D2E/DX2                !
 ! D45   D(8,9,10,13)          179.9804         estimate D2E/DX2                !
 ! D46   D(8,9,10,16)           -0.0178         estimate D2E/DX2                !
 ! D47   D(9,10,13,2)         -179.973          estimate D2E/DX2                !
 ! D48   D(9,10,13,15)           0.0            estimate D2E/DX2                !
 ! D49   D(16,10,13,2)           0.0252         estimate D2E/DX2                !
 ! D50   D(16,10,13,15)        179.9983         estimate D2E/DX2                !
 ! D51   D(9,10,16,28)          48.6539         estimate D2E/DX2                !
 ! D52   D(9,10,16,29)         166.9634         estimate D2E/DX2                !
 ! D53   D(9,10,16,30)         -72.9835         estimate D2E/DX2                !
 ! D54   D(13,10,16,28)       -131.3443         estimate D2E/DX2                !
 ! D55   D(13,10,16,29)        -13.0348         estimate D2E/DX2                !
 ! D56   D(13,10,16,30)        107.0184         estimate D2E/DX2                !
 ! D57   D(5,12,14,6)            0.0042         estimate D2E/DX2                !
 ! D58   D(5,12,14,19)        -179.9947         estimate D2E/DX2                !
 ! D59   D(17,12,14,6)         179.9932         estimate D2E/DX2                !
 ! D60   D(17,12,14,19)         -0.0056         estimate D2E/DX2                !
 ! D61   D(5,12,17,20)         179.9871         estimate D2E/DX2                !
 ! D62   D(5,12,17,31)          -0.0225         estimate D2E/DX2                !
 ! D63   D(14,12,17,20)          0.0015         estimate D2E/DX2                !
 ! D64   D(14,12,17,31)        179.9918         estimate D2E/DX2                !
 ! D65   D(2,13,15,18)         179.9644         estimate D2E/DX2                !
 ! D66   D(2,13,15,22)          -0.0101         estimate D2E/DX2                !
 ! D67   D(10,13,15,18)         -0.0087         estimate D2E/DX2                !
 ! D68   D(10,13,15,22)       -179.9831         estimate D2E/DX2                !
 ! D69   D(6,14,19,21)        -179.9956         estimate D2E/DX2                !
 ! D70   D(6,14,19,33)           0.0052         estimate D2E/DX2                !
 ! D71   D(12,14,19,21)          0.003          estimate D2E/DX2                !
 ! D72   D(12,14,19,33)       -179.9962         estimate D2E/DX2                !
 ! D73   D(13,15,18,7)           0.0123         estimate D2E/DX2                !
 ! D74   D(13,15,18,32)        179.9035         estimate D2E/DX2                !
 ! D75   D(22,15,18,7)         179.9871         estimate D2E/DX2                !
 ! D76   D(22,15,18,32)         -0.1216         estimate D2E/DX2                !
 ! D77   D(13,15,22,35)        160.3581         estimate D2E/DX2                !
 ! D78   D(13,15,22,36)        -79.7056         estimate D2E/DX2                !
 ! D79   D(13,15,22,37)         41.51           estimate D2E/DX2                !
 ! D80   D(18,15,22,35)        -19.6157         estimate D2E/DX2                !
 ! D81   D(18,15,22,36)        100.3205         estimate D2E/DX2                !
 ! D82   D(18,15,22,37)       -138.4639         estimate D2E/DX2                !
 ! D83   D(12,17,20,4)         179.9516         estimate D2E/DX2                !
 ! D84   D(12,17,20,21)          0.0053         estimate D2E/DX2                !
 ! D85   D(31,17,20,4)          -0.0381         estimate D2E/DX2                !
 ! D86   D(31,17,20,21)       -179.9844         estimate D2E/DX2                !
 ! D87   D(14,19,21,20)          0.0035         estimate D2E/DX2                !
 ! D88   D(14,19,21,34)       -179.989          estimate D2E/DX2                !
 ! D89   D(33,19,21,20)       -179.9973         estimate D2E/DX2                !
 ! D90   D(33,19,21,34)          0.0102         estimate D2E/DX2                !
 ! D91   D(4,20,21,19)        -179.9541         estimate D2E/DX2                !
 ! D92   D(4,20,21,34)           0.0384         estimate D2E/DX2                !
 ! D93   D(17,20,21,19)         -0.0079         estimate D2E/DX2                !
 ! D94   D(17,20,21,34)        179.9846         estimate D2E/DX2                !
 --------------------------------------------------------------------------------
 Trust Radius=3.00D-01 FncErr=1.00D-07 GrdErr=1.00D-06 EigMax=2.50D+02 EigMin=1.00D-04
 Number of steps in this run=    225 maximum allowed number of steps=    258.
 GradGradGradGradGradGradGradGradGradGradGradGradGradGradGradGradGradGrad

 Leave Link  103 at Mon Jun  9 11:15:36 2025, MaxMem=  5368709120 cpu:               0.6 elap:               0.1
 (Enter /opt/software/custom/apps/gaussian/x86_64-legacy/g16/l202.exe)
                          Input orientation:                          
 ---------------------------------------------------------------------
 Center     Atomic      Atomic             Coordinates (Angstroms)
 Number     Number       Type             X           Y           Z
 ---------------------------------------------------------------------
      1         16           0        0.280100    0.753500   -0.850600
      2          8           0        5.679400   -1.195500   -0.912300
      3          8           0        0.408100    2.255800   -0.693200
      4          8           0       -7.175500   -0.081800    0.188100
      5          7           0       -2.502100    1.008700   -0.784500
      6          7           0       -1.712700   -0.825800    0.190600
      7          7           0        3.076100    1.369000    1.072200
      8          6           0        1.169400   -0.005100    0.539500
      9          6           0        2.646800    0.248100    0.457100
     10          6           0        3.464600   -0.639500   -0.216200
     11          6           0       -1.397000    0.274800   -0.454500
     12          6           0       -3.604400    0.337200   -0.321400
     13          6           0        4.825000   -0.355800   -0.261700
     14          6           0       -3.085400   -0.804200    0.283100
     15          6           0        5.311900    0.789200    0.359000
     16          6           0        2.917800   -1.861300   -0.874200
     17          6           0       -4.969200    0.621500   -0.377900
     18          6           0        4.404400    1.611600    1.006700
     19          6           0       -3.965700   -1.728000    0.871500
     20          6           0       -5.831000   -0.308700    0.212600
     21          6           0       -5.340200   -1.463200    0.826800
     22          6           0        6.759600    1.137400    0.338400
     23          6           0        6.258400   -2.250100   -0.147000
     24          6           0       -7.618200    1.112500   -0.452200
     25          1           0        0.938200   -1.073200    0.587400
     26          1           0        0.777300    0.439700    1.462200
     27          1           0       -2.508000    1.890000   -1.280900
     28          1           0        2.047900   -1.627300   -1.495300
     29          1           0        3.637400   -2.335800   -1.548900
     30          1           0        2.635600   -2.603800   -0.120600
     31          1           0       -5.284400    1.533100   -0.868100
     32          1           0        4.721400    2.519000    1.511500
     33          1           0       -3.594200   -2.628000    1.351100
     34          1           0       -6.029900   -2.171900    1.279500
     35          1           0        6.917000    2.199700    0.555900
     36          1           0        7.301700    0.554000    1.088900
     37          1           0        7.197700    0.949300   -0.647400
     38          1           0        6.888800   -2.847300   -0.811600
     39          1           0        5.482900   -2.898600    0.272500
     40          1           0        6.882900   -1.849400    0.657000
     41          1           0       -7.249400    2.006700    0.061900
     42          1           0       -8.710600    1.131900   -0.379500
     43          1           0       -7.370500    1.114000   -1.519200
 ---------------------------------------------------------------------
                    Distance matrix (angstroms):
                    1          2          3          4          5
     1  S    0.000000
     2  O    5.740631   0.000000
     3  O    1.515937   6.304449   0.000000
     4  O    7.573810  12.949890   7.984488   0.000000
     5  N    2.794662   8.474183   3.167469   4.896510   0.000000
     6  N    2.747642   7.483061   3.843846   5.513232   2.222468
     7  N    3.448712   4.158374   3.319831  10.391427   5.890116
     8  C    1.816234   4.885169   2.685292   8.352648   4.032453
     9  C    2.750778   3.627106   3.219600   9.831519   5.350818
    10  C    3.533264   2.387264   4.237037  10.662374   6.216192
    11  C    1.788495   7.242016   2.690674   5.825046   1.367024
    12  C    3.942423   9.428005   4.463117   3.631516   1.371291
    13  C    4.715238   1.363223   5.149335  12.012052   7.471384
    14  C    3.877924   8.854593   4.745662   4.154492   2.183258
    15  C    5.175270   2.385434   5.225447  12.518906   7.900276
    16  C    3.714189   2.840981   4.825129  10.303873   6.133536
    17  C    5.272193  10.815718   5.629006   2.383851   2.530184
    18  C    4.603884   3.631528   4.390338  11.731658   7.160421
    19  C    5.210594   9.823108   6.119565   3.671488   3.517668
    20  C    6.293187  11.599186   6.806137   1.363732   3.716359
    21  C    6.270184  11.159199   7.013153   2.384225   4.094068
    22  C    6.598865   2.858934   6.531200  13.989140   9.330410
    23  C    6.727313   1.425870   7.404558  13.611888   9.368700
    24  C    7.916486  13.504248   8.110901   1.425595   5.127931
    25  H    2.416148   4.974237   3.605993   8.183791   4.248774
    26  H    2.386362   5.687065   2.842583   8.071079   4.015705
    27  H    3.041429   8.757265   2.997139   5.275558   1.011503
    28  H    3.034627   3.703260   4.290778   9.502290   5.306245
    29  H    4.615502   2.423903   5.678326  11.181077   7.033026
    30  H    4.165662   3.445986   5.376369  10.134765   6.315606
    31  H    5.618874  11.298324   5.740857   2.701799   2.832521
    32  H    5.331196   4.537629   4.851240  12.249562   7.728620
    33  H    5.593945   9.652704   6.636947   4.545483   4.356496
    34  H    7.274022  11.952617   8.058779   2.621464   5.178966
    35  H    6.936727   3.900596   6.627909  14.280724   9.588253
    36  H    7.287272   3.114066   7.320773  14.519125   9.991540
    37  H    6.923353   2.641131   6.914312  14.434338   9.700951
    38  H    7.526101   2.049691   8.249553  14.368435  10.151772
    39  H    6.455100   2.083966   7.297535  12.968291   8.952344
    40  H    7.255681   2.082955   7.784519  14.176843   9.915890
    41  H    7.687427  13.355037   7.698671   2.093614   4.924353
    42  H    9.010983  14.586733   9.193054   2.037589   6.222915
    43  H    7.688216  13.266575   7.905226   2.093522   4.924651
                    6          7          8          9         10
     6  N    0.000000
     7  N    5.341065   0.000000
     8  C    3.016916   2.409860   0.000000
     9  C    4.497724   1.348727   1.501203   0.000000
    10  C    5.196598   2.417639   2.498297   1.382014   0.000000
    11  C    1.314207   4.851465   2.766367   4.145364   4.952564
    12  C    2.278869   6.901870   4.862868   6.300119   7.136930
    13  C    6.570160   2.795152   3.758766   2.371903   1.390411
    14  C    1.375983   6.581000   4.336776   5.830586   6.571067
    15  C    7.209826   2.417359   4.221824   2.721244   2.405110
    16  C    4.862879   3.774701   2.915635   2.509057   1.491559
    17  C    3.608693   8.209044   6.238322   7.670731   8.529083
    18  C    6.635198   1.351860   3.646535   2.291364   2.728765
    19  C    2.520635   7.695365   5.426588   6.913889   7.587970
    20  C    4.150695   9.104396   7.014602   8.499582   9.311363
    21  C    3.737618   8.883450   6.677087   8.176637   8.904540
    22  C    8.698038   3.763014   5.709298   4.209521   3.784439
    23  C    8.104384   4.971053   5.604394   4.432786   3.225545
    24  C    6.248610  10.805445   8.913720  10.341385  11.222908
    25  H    2.691826   3.281766   1.093885   2.163822   2.686367
    26  H    3.068967   2.510016   1.096797   2.131189   3.347130
    27  H    3.189574   6.081997   4.519793   5.682292   6.572968
    28  H    4.198425   4.077630   2.746581   2.772665   2.149159
    29  H    5.824906   4.572829   3.985549   3.417874   2.164112
    30  H    4.708061   4.171325   3.055931   2.909845   2.134211
    31  H    4.409342   8.584268   6.782251   8.143176   9.038261
    32  H    7.370896   2.054871   4.464591   3.251571   3.813216
    33  H    2.852144   7.781176   5.498198   6.929738   7.499148
    34  H    4.651441   9.772419   7.554637   9.045323   9.732980
    35  H    9.151984   3.963476   6.155999   4.696074   4.536106
    36  H    9.163525   4.303510   6.182195   4.707530   4.225052
    37  H    9.124059   4.485617   6.217718   4.735218   4.079982
    38  H    8.892506   5.988537   6.528025   5.402376   4.117527
    39  H    7.488649   4.964334   5.200953   4.240196   3.068533
    40  H    8.668888   5.002221   6.004942   4.731174   3.729760
    41  H    6.220504  10.394389   8.669004  10.059007  11.039452
    42  H    7.288910  11.878129   9.987579  11.422414  12.304472
    43  H    6.220687  10.766236   8.855536  10.247041  11.053143
                   11         12         13         14         15
    11  C    0.000000
    12  C    2.212289   0.000000
    13  C    6.256845   8.458049   0.000000
    14  C    2.135179   1.391968   7.941807   0.000000
    15  C    6.777590   8.953639   1.390455   8.547475   0.000000
    16  C    4.832864   6.904932   2.505813   6.204451   3.778577
    17  C    3.589802   1.395241   9.843524   2.453211  10.308839
    18  C    6.130121   8.217592   2.378320   7.902961   1.385429
    19  C    3.516775   2.412177   8.969029   1.405186   9.626672
    20  C    4.521709   2.379094  10.666654   2.790844  11.197814
    21  C    4.495687   2.751873  10.283115   2.411227  10.897678
    22  C    8.240321  10.415765   2.516435  10.034784   1.489128
    23  C    8.066897  10.198008   2.378269   9.464788   3.223235
    24  C    6.277346   4.090084  12.530978   4.976011  12.959555
    25  H    2.890643   4.842557   4.042629   4.044047   4.759197
    26  H    2.903190   4.731916   4.470853   4.225875   4.679936
    27  H    2.127470   2.129301   7.736619   3.168312   8.065474
    28  H    4.070453   6.098016   3.294050   5.494631   4.464482
    29  H    5.775649   7.816352   2.643422   7.134288   4.026122
    30  H    4.965852   6.901261   3.141160   6.010938   4.347993
    31  H    4.106856   2.133415  10.302215   3.409374  10.693023
    32  H    6.807085   8.799927   3.379267   8.573141   2.160823
    33  H    4.063758   3.404375   8.868311   2.173879   9.590627
    34  H    5.518773   3.839468  11.113162   3.396100  11.758055
    35  H    8.593529  10.720934   3.402281  10.447289   2.145839
    36  H    8.838972  10.999044   2.964102  10.506468   2.132458
    37  H    8.623284  10.824339   2.735280  10.472953   2.143529
    38  H    8.861688  10.976729   3.281651  10.239985   4.132923
    39  H    7.611309   9.664478   2.680305   8.820566   3.692776
    40  H    8.620000  10.757414   2.703665  10.029918   3.085297
    41  H    6.125090   4.027428  12.307610   5.028815  12.623662
    42  H    7.364034   5.167998  13.617621   5.985850  14.046114
    43  H    6.125402   4.027611  12.347949   5.028902  12.824835
                   16         17         18         19         20
    16  C    0.000000
    17  C    8.283440   0.000000
    18  C    4.220047   9.526898   0.000000
    19  C    7.102662   2.843970   9.012757   0.000000
    20  C    8.951715   1.398807  10.444212   2.434729   0.000000
    21  C    8.440761   2.436169  10.219784   1.400488   1.396781
    22  C    5.022154  11.761972   2.493684  11.114260  12.673999
    23  C    3.440871  11.591307   4.436335  10.287961  12.249569
    24  C   10.955769   2.695144  12.121073   4.812627   2.378204
    25  H    2.583833   6.221028   4.404374   4.955574   6.822536
    26  H    3.916006   6.036661   3.838839   5.248228   6.766922
    27  H    6.608855   2.912388   7.286418   4.455069   4.255250
    28  H    1.094188   7.452877   4.722666   6.463379   8.169008
    29  H    1.094621   9.175534   4.764593   8.002180   9.841881
    30  H    1.094923   8.264487   4.708403   6.732641   8.778486
    31  H    8.876828   1.081971   9.868834   3.924277   2.204294
    32  H    5.303920  10.053759   1.085673   9.690837  11.001644
    33  H    6.924300   3.929290   9.059273   1.085370   3.417398
    34  H    9.208487   3.416891  11.102428   2.150449   2.156235
    35  H    5.876266  12.026822   2.619588  11.574091  12.996978
    36  H    5.376431  12.358440   3.085388  11.498221  13.190146
    37  H    5.125276  12.174298   3.313188  11.580004  13.117515
    38  H    4.092060  12.362558   5.418510  11.041097  13.011026
    39  H    2.995104  11.048100   4.695116   9.539662  11.606701
    40  H    4.250498  12.151076   4.271273  10.851399  12.814621
    41  H   10.918318   2.703981  11.698710   5.038464   2.719494
    42  H   12.017640   3.776054  13.196776   5.679622   3.273837
    43  H   10.729285   2.703953  12.053051   5.038360   2.719056
                   21         22         23         24         25
    21  C    0.000000
    22  C   12.385750   0.000000
    23  C   11.665977   3.458608   0.000000
    24  C    3.668699  14.399542  14.281465   0.000000
    25  H    6.295055   6.231970   5.498087   8.892133   0.000000
    26  H    6.438056   6.126796   6.314032   8.637245   1.755001
    27  H    4.869056   9.438059   9.760939   5.235016   4.914000
    28  H    7.746167   5.762477   4.464762  10.100894   2.424067
    29  H    9.327523   5.037177   2.973602  11.822946   3.666554
    30  H    8.112455   5.587006   3.640121  10.911520   2.392732
    31  H    3.442908  12.110746  12.168353   2.407592   6.901596
    32  H   10.842625   2.727497   5.278002  12.573786   5.298157
    33  H    2.163369  11.063678   9.973006   5.782370   4.852143
    34  H    1.087602  13.244185  12.371068   4.038411   7.088058
    35  H   12.795670   1.095702   4.552861  14.610623   6.816078
    36  H   12.804508   1.094293   3.237113  15.009674   6.587368
    37  H   12.852718   1.095041   3.371772  14.818085   6.693025
    38  H   12.415657   4.149341   1.093501  15.042016   6.365082
    39  H   10.931931   4.233627   1.094501  13.720530   4.907703
    40  H   12.230378   3.006274   1.094064  14.842004   5.995564
    41  H    4.033649  14.038669  14.164203   1.095402   8.763488
    42  H    4.421459  15.486849  15.348060   1.094988   9.944682
    43  H    4.033335  14.251700  14.104858   1.095375   8.846248
                   26         27         28         29         30
    26  H    0.000000
    27  H    4.518978   0.000000
    28  H    3.825405   5.759652   0.000000
    29  H    4.995027   7.462918   1.741079   0.000000
    30  H    3.901465   6.927998   1.785705   1.765069   0.000000
    31  H    6.585592   2.829519   8.009003   9.748353   8.966554
    32  H    4.458906   7.775433   5.777565   5.840393   5.766922
    33  H    5.341642   5.340373   6.398178   7.796885   6.401320
    34  H    7.293271   5.954701   8.558444  10.073897   8.788499
    35  H    6.450961   9.607308   6.523916   5.979692   6.470058
    36  H    6.536070  10.179934   6.248086   5.360600   5.762558
    37  H    6.777289   9.771737   5.820502   4.927507   5.806444
    38  H    7.302395  10.533855   5.038865   3.372958   4.315841
    39  H    5.890866   9.444481   4.067007   2.653321   2.889386
    40  H    6.570135  10.292112   5.297070   3.954219   4.383302
    41  H    8.297243   4.929260  10.103000  11.831078  10.908861
    42  H    9.689750   6.313437  11.162595  12.878880  11.948169
    43  H    8.702303   4.929794   9.809259  11.535851  10.765693
                   31         32         33         34         35
    31  H    0.000000
    32  H   10.332015   0.000000
    33  H    5.009629   9.780927   0.000000
    34  H    4.346836  11.732383   2.479070   0.000000
    35  H   12.302288   2.415737  11.594152  13.684177   0.000000
    36  H   12.774913   3.270744  11.354053  13.608763   1.772121
    37  H   12.497694   3.640998  11.543664  13.726771   1.757903
    38  H   12.937461   6.236312  10.706010  13.104262   5.229059
    39  H   11.699388   5.609402   9.144963  11.579581   5.303737
    40  H   12.720473   4.948249  10.528894  12.931818   4.050506
    41  H    2.224954  12.069128   6.041769   4.520003  14.176324
    42  H    3.484040  13.635195   6.580986   4.566566  15.691942
    43  H    2.225172  12.544848   6.041658   4.519631  14.478171
                   36         37         38         39         40
    36  H    0.000000
    37  H    1.783764   0.000000
    38  H    3.918064   3.812683   0.000000
    39  H    3.986852   4.311970   1.776080   0.000000
    40  H    2.477552   3.103753   1.775563   1.791274   0.000000
    41  H   14.659454  14.503100  14.973744  13.646164  14.661022
    42  H   16.089870  15.911603  16.104721  14.769072  15.909737
    43  H   14.912721  14.595191  14.816215  13.583852  14.719952
                   41         42         43
    41  H    0.000000
    42  H    1.759322   0.000000
    43  H    1.819741   1.759291   0.000000
 Stoichiometry    C17H19N3O3S
 Framework group  C1[X(C17H19N3O3S)]
 Deg. of freedom   123
 Full point group                 C1      NOp   1
 Largest Abelian subgroup         C1      NOp   1
 Largest concise Abelian subgroup C1      NOp   1
                         Standard orientation:                         
 ---------------------------------------------------------------------
 Center     Atomic      Atomic             Coordinates (Angstroms)
 Number     Number       Type             X           Y           Z
 ---------------------------------------------------------------------
      1         16           0       -0.188069   -0.753910   -0.767073
      2          8           0       -5.620548    1.096753   -0.901470
      3          8           0       -0.290033   -2.252047   -0.559095
      4          8           0        7.249824    0.246852    0.252147
      5          7           0        2.598046   -0.957823   -0.688877
      6          7           0        1.774838    0.894445    0.222603
      7          7           0       -2.976416   -1.353070    1.171933
      8          6           0       -1.093089    0.035513    0.595445
      9          6           0       -2.565673   -0.246238    0.519801
     10          6           0       -3.397644    0.603591   -0.184172
     11          6           0        1.479655   -0.232710   -0.385287
     12          6           0        3.687559   -0.251793   -0.247376
     13          6           0       -4.752780    0.294664   -0.221758
     14          6           0        3.147532    0.900099    0.317507
     15          6           0       -5.220703   -0.837073    0.436713
     16          6           0       -2.871106    1.811864   -0.882445
     17          6           0        5.057230   -0.513825   -0.292508
     18          6           0       -4.300141   -1.621040    1.113008
     19          6           0        4.010429    1.858582    0.875421
     20          6           0        5.901514    0.450800    0.267265
     21          6           0        5.389436    1.616605    0.841435
     22          6           0       -6.662042   -1.211145    0.426085
     23          6           0       -6.219343    2.166290   -0.173018
     24          6           0        7.714556   -0.960452   -0.346821
     25          1           0       -0.880718    1.108518    0.607471
     26          1           0       -0.694968   -0.370883    1.533159
     27          1           0        2.620297   -1.855161   -1.155167
     28          1           0       -1.996094    1.572316   -1.494178
     29          1           0       -3.597655    2.250571   -1.573718
     30          1           0       -2.603348    2.584258   -0.154044
     31          1           0        5.389253   -1.435798   -0.751187
     32          1           0       -4.602136   -2.516283    1.647821
     33          1           0        3.622338    2.767617    1.323829
     34          1           0        6.065780    2.352209    1.270765
     35          1           0       -6.801218   -2.268085    0.679204
     36          1           0       -7.215664   -0.612318    1.155734
     37          1           0       -7.101544   -1.064203   -0.566065
     38          1           0       -6.858873    2.729516   -0.858236
     39          1           0       -5.456096    2.842122    0.225275
     40          1           0       -6.838218    1.782092    0.643293
     41          1           0        7.360520   -1.843100    0.196774
     42          1           0        8.806991   -0.958192   -0.272133
     43          1           0        7.468895   -1.002373   -1.413470
 ---------------------------------------------------------------------
 Rotational constants (GHZ):           0.7795264           0.0744128           0.0707363
 Leave Link  202 at Mon Jun  9 11:15:36 2025, MaxMem=  5368709120 cpu:               0.8 elap:               0.1
 (Enter /opt/software/custom/apps/gaussian/x86_64-legacy/g16/l301.exe)
 Standard basis: 6-31G(d) (6D, 7F)
 Ernie: Thresh=  0.10000D-02 Tol=  0.10000D-05 Strict=F.
 There are   402 symmetry adapted cartesian basis functions of A   symmetry.
 There are   402 symmetry adapted basis functions of A   symmetry.
   402 basis functions,   772 primitive gaussians,   402 cartesian basis functions
    91 alpha electrons       91 beta electrons
       nuclear repulsion energy      2103.6552927664 Hartrees.
 IExCor= 4336 DFT=T Ex+Corr=M062X ExCW=0 ScaHFX=  0.540000
 ScaDFX=  1.000000  1.000000  1.000000  1.000000 ScalE2=  1.000000  1.000000
 IRadAn=      5 IRanWt=     -1 IRanGd=            0 ICorTp=0 IEmpDi=  4
 NAtoms=   43 NActive=   43 NUniq=   43 SFac= 1.00D+00 NAtFMM=   60 NAOKFM=F Big=F
 Integral buffers will be    131072 words long.
 Raffenetti 2 integral format.
 Two-electron integral symmetry is turned on.
 Leave Link  301 at Mon Jun  9 11:15:36 2025, MaxMem=  5368709120 cpu:               1.5 elap:               0.1
 (Enter /opt/software/custom/apps/gaussian/x86_64-legacy/g16/l302.exe)
 NPDir=0 NMtPBC=     1 NCelOv=     1 NCel=       1 NClECP=     1 NCelD=      1
         NCelK=      1 NCelE2=     1 NClLst=     1 CellRange=     0.0.
 One-electron integrals computed using PRISM.
 One-electron integral symmetry used in STVInt
 NBasis=   402 RedAO= T EigKep=  3.63D-04  NBF=   402
 NBsUse=   402 1.00D-06 EigRej= -1.00D+00 NBFU=   402
 Precomputing XC quadrature grid using
 IXCGrd= 4 IRadAn=           5 IRanWt=          -1 IRanGd=           0 AccXCQ= 0.00D+00.
 Generated NRdTot=       0 NPtTot=           0 NUsed=           0 NTot=          32
 NSgBfM=   392   392   392   392   392 MxSgAt=    43 MxSgA2=    43.
 Leave Link  302 at Mon Jun  9 11:15:37 2025, MaxMem=  5368709120 cpu:               9.7 elap:               0.5
 (Enter /opt/software/custom/apps/gaussian/x86_64-legacy/g16/l303.exe)
 DipDrv:  MaxL=1.
 Leave Link  303 at Mon Jun  9 11:15:37 2025, MaxMem=  5368709120 cpu:               1.0 elap:               0.1
 (Enter /opt/software/custom/apps/gaussian/x86_64-legacy/g16/l401.exe)
 ExpMin= 1.17D-01 ExpMax= 2.19D+04 ExpMxC= 3.30D+03 IAcc=3 IRadAn=         5 AccDes= 0.00D+00
 Harris functional with IExCor= 1009 and IRadAn=       5 diagonalized for initial guess.
 HarFok:  IExCor= 1009 AccDes= 0.00D+00 IRadAn=         5 IDoV= 1 UseB2=F ITyADJ=14
 ICtDFT=  3500011 ScaDFX=  1.000000  1.000000  1.000000  1.000000
 FoFCou: FMM=F IPFlag=           0 FMFlag=      100000 FMFlg1=           0
         NFxFlg=           0 DoJE=T BraDBF=F KetDBF=T FulRan=T
         wScrn=  0.000000 ICntrl=       500 IOpCl=  0 I1Cent=   200000004 NGrid=           0
         NMat0=    1 NMatS0=      1 NMatT0=    0 NMatD0=    1 NMtDS0=    0 NMtDT0=    0
 Petite list used in FoFCou.
 Harris En= -1446.15865324184    
 JPrj=0 DoOrth=F DoCkMO=F.
 Leave Link  401 at Mon Jun  9 11:15:38 2025, MaxMem=  5368709120 cpu:              26.5 elap:               1.4
 (Enter /opt/software/custom/apps/gaussian/x86_64-legacy/g16/l502.exe)
 Integral symmetry usage will be decided dynamically.
 Closed shell SCF:
 Using DIIS extrapolation, IDIIS=  1040.
 NGot=  5368709120 LenX=  5368373424 LenY=  5368211379
 Requested convergence on RMS density matrix=1.00D-08 within 128 cycles.
 Requested convergence on MAX density matrix=1.00D-06.
 Requested convergence on             energy=1.00D-06.
 No special actions if energy rises.
 Fock matrices will be formed incrementally for  20 cycles.
 Integral accuracy reduced to 1.0D-05 until final iterations.

 Cycle   1  Pass 0  IDiag  1:
 FoFJK:  IHMeth= 1 ICntrl=       0 DoSepK=F KAlg= 0 I1Cent=           0 FoldK=F
 IRaf= 630000000 NMat=       1 IRICut=       1 DoRegI=T DoRafI=F ISym2E= 0 IDoP0=0 IntGTp=1.
 FoFCou: FMM=F IPFlag=           0 FMFlag=      100000 FMFlg1=           0
         NFxFlg=           0 DoJE=F BraDBF=F KetDBF=F FulRan=T
         wScrn=  0.000000 ICntrl=         0 IOpCl=  0 I1Cent=           0 NGrid=           0
         NMat0=    1 NMatS0=      1 NMatT0=    0 NMatD0=    1 NMtDS0=    0 NMtDT0=    0
 Symmetry not used in FoFCou.
 E= -1446.21741835092    
 DIIS: error= 2.67D-02 at cycle   1 NSaved=   1.
 NSaved= 1 IEnMin= 1 EnMin= -1446.21741835092     IErMin= 1 ErrMin= 2.67D-02
 ErrMax= 2.67D-02  0.00D+00 EMaxC= 1.00D-01 BMatC= 7.02D-01 BMatP= 7.02D-01
 IDIUse=3 WtCom= 7.33D-01 WtEn= 2.67D-01
 Coeff-Com:  0.100D+01
 Coeff-En:   0.100D+01
 Coeff:      0.100D+01
 Gap=     0.366 Goal=   None    Shift=    0.000
 GapD=    0.366 DampG=1.000 DampE=0.500 DampFc=0.5000 IDamp=-1.
 Damping current iteration by 5.00D-01
 RMSDP=5.11D-03 MaxDP=2.71D-01              OVMax= 2.27D-01

 Cycle   2  Pass 0  IDiag  1:
 RMSU=  2.55D-03    CP:  9.91D-01
 E= -1446.47241908150     Delta-E=       -0.255000730579 Rises=F Damp=T
 DIIS: error= 8.95D-03 at cycle   2 NSaved=   2.
 NSaved= 2 IEnMin= 2 EnMin= -1446.47241908150     IErMin= 2 ErrMin= 8.95D-03
 ErrMax= 8.95D-03  0.00D+00 EMaxC= 1.00D-01 BMatC= 8.21D-02 BMatP= 7.02D-01
 IDIUse=3 WtCom= 9.10D-01 WtEn= 8.95D-02
 Coeff-Com:  0.392D-01 0.961D+00
 Coeff-En:   0.103D+00 0.897D+00
 Coeff:      0.449D-01 0.955D+00
 Gap=     0.355 Goal=   None    Shift=    0.000
 RMSDP=1.86D-03 MaxDP=1.07D-01 DE=-2.55D-01 OVMax= 2.00D-01

 Cycle   3  Pass 0  IDiag  1:
 RMSU=  1.59D-03    CP:  9.75D-01  6.40D-01
 E= -1446.76078861222     Delta-E=       -0.288369530714 Rises=F Damp=F
 DIIS: error= 1.18D-02 at cycle   3 NSaved=   3.
 NSaved= 3 IEnMin= 3 EnMin= -1446.76078861222     IErMin= 2 ErrMin= 8.95D-03
 ErrMax= 1.18D-02  0.00D+00 EMaxC= 1.00D-01 BMatC= 7.33D-02 BMatP= 8.21D-02
 IDIUse=3 WtCom= 8.82D-01 WtEn= 1.18D-01
 Coeff-Com: -0.769D-01 0.518D+00 0.559D+00
 Coeff-En:   0.000D+00 0.000D+00 0.100D+01
 Coeff:     -0.678D-01 0.456D+00 0.611D+00
 Gap=     0.261 Goal=   None    Shift=    0.000
 RMSDP=1.11D-03 MaxDP=6.16D-02 DE=-2.88D-01 OVMax= 6.19D-02

 Cycle   4  Pass 0  IDiag  1:
 RMSU=  5.33D-04    CP:  9.82D-01  9.07D-01  5.66D-01
 E= -1446.81659293644     Delta-E=       -0.055804324228 Rises=F Damp=F
 DIIS: error= 3.62D-03 at cycle   4 NSaved=   4.
 NSaved= 4 IEnMin= 4 EnMin= -1446.81659293644     IErMin= 4 ErrMin= 3.62D-03
 ErrMax= 3.62D-03  0.00D+00 EMaxC= 1.00D-01 BMatC= 8.46D-03 BMatP= 7.33D-02
 IDIUse=3 WtCom= 9.64D-01 WtEn= 3.62D-02
 Coeff-Com: -0.235D-01 0.713D-01 0.283D+00 0.669D+00
 Coeff-En:   0.000D+00 0.000D+00 0.709D-01 0.929D+00
 Coeff:     -0.227D-01 0.687D-01 0.275D+00 0.679D+00
 Gap=     0.263 Goal=   None    Shift=    0.000
 RMSDP=3.53D-04 MaxDP=2.80D-02 DE=-5.58D-02 OVMax= 2.08D-02

 Cycle   5  Pass 0  IDiag  1:
 RMSU=  1.39D-04    CP:  9.80D-01  8.37D-01  6.99D-01  6.82D-01
 E= -1446.82361046807     Delta-E=       -0.007017531629 Rises=F Damp=F
 DIIS: error= 7.04D-04 at cycle   5 NSaved=   5.
 NSaved= 5 IEnMin= 5 EnMin= -1446.82361046807     IErMin= 5 ErrMin= 7.04D-04
 ErrMax= 7.04D-04  0.00D+00 EMaxC= 1.00D-01 BMatC= 3.26D-04 BMatP= 8.46D-03
 IDIUse=3 WtCom= 9.93D-01 WtEn= 7.04D-03
 Coeff-Com: -0.645D-02 0.110D-01 0.916D-01 0.297D+00 0.607D+00
 Coeff-En:   0.000D+00 0.000D+00 0.000D+00 0.000D+00 0.100D+01
 Coeff:     -0.640D-02 0.109D-01 0.909D-01 0.295D+00 0.609D+00
 Gap=     0.260 Goal=   None    Shift=    0.000
 RMSDP=7.10D-05 MaxDP=3.90D-03 DE=-7.02D-03 OVMax= 3.94D-03

 Cycle   6  Pass 0  IDiag  1:
 RMSU=  4.57D-05    CP:  9.80D-01  8.44D-01  6.92D-01  7.43D-01  7.23D-01
 E= -1446.82388241265     Delta-E=       -0.000271944576 Rises=F Damp=F
 DIIS: error= 2.34D-04 at cycle   6 NSaved=   6.
 NSaved= 6 IEnMin= 6 EnMin= -1446.82388241265     IErMin= 6 ErrMin= 2.34D-04
 ErrMax= 2.34D-04  0.00D+00 EMaxC= 1.00D-01 BMatC= 4.40D-05 BMatP= 3.26D-04
 IDIUse=3 WtCom= 9.98D-01 WtEn= 2.34D-03
 Coeff-Com: -0.276D-03-0.242D-02 0.119D-01 0.698D-01 0.304D+00 0.617D+00
 Coeff-En:   0.000D+00 0.000D+00 0.000D+00 0.000D+00 0.954D-02 0.990D+00
 Coeff:     -0.276D-03-0.242D-02 0.119D-01 0.696D-01 0.303D+00 0.618D+00
 Gap=     0.260 Goal=   None    Shift=    0.000
 RMSDP=2.47D-05 MaxDP=1.21D-03 DE=-2.72D-04 OVMax= 2.05D-03

 Cycle   7  Pass 0  IDiag  1:
 RMSU=  1.69D-05    CP:  9.80D-01  8.42D-01  6.96D-01  7.41D-01  8.02D-01
                    CP:  7.52D-01
 E= -1446.82392409634     Delta-E=       -0.000041683696 Rises=F Damp=F
 DIIS: error= 8.29D-05 at cycle   7 NSaved=   7.
 NSaved= 7 IEnMin= 7 EnMin= -1446.82392409634     IErMin= 7 ErrMin= 8.29D-05
 ErrMax= 8.29D-05  0.00D+00 EMaxC= 1.00D-01 BMatC= 4.95D-06 BMatP= 4.40D-05
 IDIUse=1 WtCom= 1.00D+00 WtEn= 0.00D+00
 Coeff-Com:  0.868D-03-0.290D-02-0.803D-02-0.104D-01 0.465D-01 0.282D+00
 Coeff-Com:  0.692D+00
 Coeff:      0.868D-03-0.290D-02-0.803D-02-0.104D-01 0.465D-01 0.282D+00
 Coeff:      0.692D+00
 Gap=     0.260 Goal=   None    Shift=    0.000
 RMSDP=9.22D-06 MaxDP=4.51D-04 DE=-4.17D-05 OVMax= 7.96D-04

 Initial convergence to 1.0D-05 achieved.  Increase integral accuracy.
 Cycle   8  Pass 1  IDiag  1:
 E= -1446.82396417396     Delta-E=       -0.000040077614 Rises=F Damp=F
 DIIS: error= 9.87D-05 at cycle   1 NSaved=   1.
 NSaved= 1 IEnMin= 1 EnMin= -1446.82396417396     IErMin= 1 ErrMin= 9.87D-05
 ErrMax= 9.87D-05  0.00D+00 EMaxC= 1.00D-01 BMatC= 1.41D-06 BMatP= 1.41D-06
 IDIUse=1 WtCom= 1.00D+00 WtEn= 0.00D+00
 Coeff-Com:  0.100D+01
 Coeff:      0.100D+01
 Gap=     0.260 Goal=   None    Shift=    0.000
 RMSDP=9.22D-06 MaxDP=4.51D-04 DE=-4.01D-05 OVMax= 5.08D-04

 Cycle   9  Pass 1  IDiag  1:
 RMSU=  3.65D-05    CP:  1.00D+00
 E= -1446.82396526714     Delta-E=       -0.000001093184 Rises=F Damp=F
 DIIS: error= 3.47D-05 at cycle   2 NSaved=   2.
 NSaved= 2 IEnMin= 2 EnMin= -1446.82396526714     IErMin= 2 ErrMin= 3.47D-05
 ErrMax= 3.47D-05  0.00D+00 EMaxC= 1.00D-01 BMatC= 6.18D-07 BMatP= 1.41D-06
 IDIUse=1 WtCom= 1.00D+00 WtEn= 0.00D+00
 Coeff-Com:  0.359D+00 0.641D+00
 Coeff:      0.359D+00 0.641D+00
 Gap=     0.260 Goal=   None    Shift=    0.000
 RMSDP=3.29D-06 MaxDP=1.55D-04 DE=-1.09D-06 OVMax= 2.96D-04

 Cycle  10  Pass 1  IDiag  1:
 RMSU=  3.24D-06    CP:  1.00D+00  1.02D+00
 E= -1446.82396569405     Delta-E=       -0.000000426908 Rises=F Damp=F
 DIIS: error= 2.08D-05 at cycle   3 NSaved=   3.
 NSaved= 3 IEnMin= 3 EnMin= -1446.82396569405     IErMin= 3 ErrMin= 2.08D-05
 ErrMax= 2.08D-05  0.00D+00 EMaxC= 1.00D-01 BMatC= 2.01D-07 BMatP= 6.18D-07
 IDIUse=1 WtCom= 1.00D+00 WtEn= 0.00D+00
 Coeff-Com: -0.823D-02 0.356D+00 0.652D+00
 Coeff:     -0.823D-02 0.356D+00 0.652D+00
 Gap=     0.260 Goal=   None    Shift=    0.000
 RMSDP=1.49D-06 MaxDP=7.41D-05 DE=-4.27D-07 OVMax= 1.80D-04

 Cycle  11  Pass 1  IDiag  1:
 RMSU=  9.66D-07    CP:  1.00D+00  1.03D+00  6.95D-01
 E= -1446.82396588658     Delta-E=       -0.000000192530 Rises=F Damp=F
 DIIS: error= 3.27D-06 at cycle   4 NSaved=   4.
 NSaved= 4 IEnMin= 4 EnMin= -1446.82396588658     IErMin= 4 ErrMin= 3.27D-06
 ErrMax= 3.27D-06  0.00D+00 EMaxC= 1.00D-01 BMatC= 1.32D-08 BMatP= 2.01D-07
 IDIUse=1 WtCom= 1.00D+00 WtEn= 0.00D+00
 Coeff-Com: -0.237D-01 0.146D+00 0.328D+00 0.550D+00
 Coeff:     -0.237D-01 0.146D+00 0.328D+00 0.550D+00
 Gap=     0.260 Goal=   None    Shift=    0.000
 RMSDP=3.77D-07 MaxDP=1.65D-05 DE=-1.93D-07 OVMax= 3.13D-05

 Cycle  12  Pass 1  IDiag  1:
 RMSU=  3.48D-07    CP:  1.00D+00  1.03D+00  7.36D-01  9.61D-01
 E= -1446.82396590084     Delta-E=       -0.000000014260 Rises=F Damp=F
 DIIS: error= 1.44D-06 at cycle   5 NSaved=   5.
 NSaved= 5 IEnMin= 5 EnMin= -1446.82396590084     IErMin= 5 ErrMin= 1.44D-06
 ErrMax= 1.44D-06  0.00D+00 EMaxC= 1.00D-01 BMatC= 7.08D-10 BMatP= 1.32D-08
 IDIUse=1 WtCom= 1.00D+00 WtEn= 0.00D+00
 Coeff-Com: -0.312D-02-0.326D-01-0.492D-01 0.823D-01 0.100D+01
 Coeff:     -0.312D-02-0.326D-01-0.492D-01 0.823D-01 0.100D+01
 Gap=     0.260 Goal=   None    Shift=    0.000
 RMSDP=2.30D-07 MaxDP=7.50D-06 DE=-1.43D-08 OVMax= 2.87D-05

 Cycle  13  Pass 1  IDiag  1:
 RMSU=  1.31D-07    CP:  1.00D+00  1.03D+00  7.44D-01  1.14D+00  1.20D+00
 E= -1446.82396590310     Delta-E=       -0.000000002254 Rises=F Damp=F
 DIIS: error= 5.30D-07 at cycle   6 NSaved=   6.
 NSaved= 6 IEnMin= 6 EnMin= -1446.82396590310     IErMin= 6 ErrMin= 5.30D-07
 ErrMax= 5.30D-07  0.00D+00 EMaxC= 1.00D-01 BMatC= 3.07D-10 BMatP= 7.08D-10
 IDIUse=1 WtCom= 1.00D+00 WtEn= 0.00D+00
 Coeff-Com:  0.218D-02-0.389D-01-0.763D-01-0.506D-01 0.515D+00 0.649D+00
 Coeff:      0.218D-02-0.389D-01-0.763D-01-0.506D-01 0.515D+00 0.649D+00
 Gap=     0.260 Goal=   None    Shift=    0.000
 RMSDP=8.48D-08 MaxDP=3.19D-06 DE=-2.25D-09 OVMax= 1.09D-05

 Cycle  14  Pass 1  IDiag  1:
 RMSU=  4.91D-08    CP:  1.00D+00  1.03D+00  7.48D-01  1.19D+00  1.33D+00
                    CP:  8.45D-01
 E= -1446.82396590345     Delta-E=       -0.000000000359 Rises=F Damp=F
 DIIS: error= 2.71D-07 at cycle   7 NSaved=   7.
 NSaved= 7 IEnMin= 7 EnMin= -1446.82396590345     IErMin= 7 ErrMin= 2.71D-07
 ErrMax= 2.71D-07  0.00D+00 EMaxC= 1.00D-01 BMatC= 2.64D-11 BMatP= 3.07D-10
 IDIUse=1 WtCom= 1.00D+00 WtEn= 0.00D+00
 Coeff-Com:  0.119D-02-0.132D-01-0.278D-01-0.327D-01 0.114D+00 0.281D+00
 Coeff-Com:  0.678D+00
 Coeff:      0.119D-02-0.132D-01-0.278D-01-0.327D-01 0.114D+00 0.281D+00
 Coeff:      0.678D+00
 Gap=     0.260 Goal=   None    Shift=    0.000
 RMSDP=2.65D-08 MaxDP=1.15D-06 DE=-3.59D-10 OVMax= 3.07D-06

 Cycle  15  Pass 1  IDiag  1:
 RMSU=  1.76D-08    CP:  1.00D+00  1.03D+00  7.49D-01  1.20D+00  1.34D+00
                    CP:  9.52D-01  1.01D+00
 E= -1446.82396590362     Delta-E=       -0.000000000164 Rises=F Damp=F
 DIIS: error= 6.07D-08 at cycle   8 NSaved=   8.
 NSaved= 8 IEnMin= 8 EnMin= -1446.82396590362     IErMin= 8 ErrMin= 6.07D-08
 ErrMax= 6.07D-08  0.00D+00 EMaxC= 1.00D-01 BMatC= 3.18D-12 BMatP= 2.64D-11
 IDIUse=1 WtCom= 1.00D+00 WtEn= 0.00D+00
 Coeff-Com:  0.477D-04 0.211D-02 0.333D-02-0.378D-02-0.498D-01-0.700D-02
 Coeff-Com:  0.256D+00 0.799D+00
 Coeff:      0.477D-04 0.211D-02 0.333D-02-0.378D-02-0.498D-01-0.700D-02
 Coeff:      0.256D+00 0.799D+00
 Gap=     0.260 Goal=   None    Shift=    0.000
 RMSDP=1.12D-08 MaxDP=3.88D-07 DE=-1.64D-10 OVMax= 1.74D-06

 Cycle  16  Pass 1  IDiag  1:
 RMSU=  7.58D-09    CP:  1.00D+00  1.03D+00  7.48D-01  1.20D+00  1.35D+00
                    CP:  9.79D-01  1.14D+00  9.36D-01
 E= -1446.82396590353     Delta-E=        0.000000000090 Rises=F Damp=F
 DIIS: error= 3.25D-08 at cycle   9 NSaved=   9.
 NSaved= 9 IEnMin= 8 EnMin= -1446.82396590362     IErMin= 9 ErrMin= 3.25D-08
 ErrMax= 3.25D-08  0.00D+00 EMaxC= 1.00D-01 BMatC= 7.57D-13 BMatP= 3.18D-12
 IDIUse=1 WtCom= 1.00D+00 WtEn= 0.00D+00
 Coeff-Com: -0.132D-03 0.282D-02 0.536D-02 0.243D-02-0.388D-01-0.382D-01
 Coeff-Com:  0.422D-01 0.398D+00 0.626D+00
 Coeff:     -0.132D-03 0.282D-02 0.536D-02 0.243D-02-0.388D-01-0.382D-01
 Coeff:      0.422D-01 0.398D+00 0.626D+00
 Gap=     0.260 Goal=   None    Shift=    0.000
 RMSDP=3.77D-09 MaxDP=2.06D-07 DE= 8.96D-11 OVMax= 4.24D-07

 SCF Done:  E(RM062X) =  -1446.82396590     A.U. after   16 cycles
            NFock= 16  Conv=0.38D-08     -V/T= 2.0069
 KE= 1.436963135852D+03 PE=-7.593263709797D+03 EE= 2.605821315275D+03
 Leave Link  502 at Mon Jun  9 11:16:32 2025, MaxMem=  5368709120 cpu:            1061.0 elap:              53.4
 (Enter /opt/software/custom/apps/gaussian/x86_64-legacy/g16/l601.exe)
 Copying SCF densities to generalized density rwf, IOpCl= 0 IROHF=0.

 **********************************************************************

            Population analysis using the SCF Density.

 **********************************************************************

 Orbital symmetries:
       Occupied  (A) (A) (A) (A) (A) (A) (A) (A) (A) (A) (A) (A)
                 (A) (A) (A) (A) (A) (A) (A) (A) (A) (A) (A) (A)
                 (A) (A) (A) (A) (A) (A) (A) (A) (A) (A) (A) (A)
                 (A) (A) (A) (A) (A) (A) (A) (A) (A) (A) (A) (A)
                 (A) (A) (A) (A) (A) (A) (A) (A) (A) (A) (A) (A)
                 (A) (A) (A) (A) (A) (A) (A) (A) (A) (A) (A) (A)
                 (A) (A) (A) (A) (A) (A) (A) (A) (A) (A) (A) (A)
                 (A) (A) (A) (A) (A) (A) (A)
       Virtual   (A) (A) (A) (A) (A) (A) (A) (A) (A) (A) (A) (A)
                 (A) (A) (A) (A) (A) (A) (A) (A) (A) (A) (A) (A)
                 (A) (A) (A) (A) (A) (A) (A) (A) (A) (A) (A) (A)
                 (A) (A) (A) (A) (A) (A) (A) (A) (A) (A) (A) (A)
                 (A) (A) (A) (A) (A) (A) (A) (A) (A) (A) (A) (A)
                 (A) (A) (A) (A) (A) (A) (A) (A) (A) (A) (A) (A)
                 (A) (A) (A) (A) (A) (A) (A) (A) (A) (A) (A) (A)
                 (A) (A) (A) (A) (A) (A) (A) (A) (A) (A) (A) (A)
                 (A) (A) (A) (A) (A) (A) (A) (A) (A) (A) (A) (A)
                 (A) (A) (A) (A) (A) (A) (A) (A) (A) (A) (A) (A)
                 (A) (A) (A) (A) (A) (A) (A) (A) (A) (A) (A) (A)
                 (A) (A) (A) (A) (A) (A) (A) (A) (A) (A) (A) (A)
                 (A) (A) (A) (A) (A) (A) (A) (A) (A) (A) (A) (A)
                 (A) (A) (A) (A) (A) (A) (A) (A) (A) (A) (A) (A)
                 (A) (A) (A) (A) (A) (A) (A) (A) (A) (A) (A) (A)
                 (A) (A) (A) (A) (A) (A) (A) (A) (A) (A) (A) (A)
                 (A) (A) (A) (A) (A) (A) (A) (A) (A) (A) (A) (A)
                 (A) (A) (A) (A) (A) (A) (A) (A) (A) (A) (A) (A)
                 (A) (A) (A) (A) (A) (A) (A) (A) (A) (A) (A) (A)
                 (A) (A) (A) (A) (A) (A) (A) (A) (A) (A) (A) (A)
                 (A) (A) (A) (A) (A) (A) (A) (A) (A) (A) (A) (A)
                 (A) (A) (A) (A) (A) (A) (A) (A) (A) (A) (A) (A)
                 (A) (A) (A) (A) (A) (A) (A) (A) (A) (A) (A) (A)
                 (A) (A) (A) (A) (A) (A) (A) (A) (A) (A) (A) (A)
                 (A) (A) (A) (A) (A) (A) (A) (A) (A) (A) (A) (A)
                 (A) (A) (A) (A) (A) (A) (A) (A) (A) (A) (A)
 The electronic state is 1-A.
 Alpha  occ. eigenvalues --  -90.03635 -19.67268 -19.66617 -19.59549 -14.82800
 Alpha  occ. eigenvalues --  -14.75636 -14.75447 -10.63707 -10.61748 -10.61477
 Alpha  occ. eigenvalues --  -10.60822 -10.60498 -10.59328 -10.59052 -10.57757
 Alpha  occ. eigenvalues --  -10.57308 -10.56986 -10.56306 -10.56066 -10.55948
 Alpha  occ. eigenvalues --  -10.55711 -10.55065 -10.54862 -10.54699  -8.36841
 Alpha  occ. eigenvalues --   -6.28865  -6.28796  -6.28395  -1.18847  -1.18846
 Alpha  occ. eigenvalues --   -1.14921  -1.11300  -1.04665  -0.99398  -0.95269
 Alpha  occ. eigenvalues --   -0.91711  -0.91609  -0.87559  -0.85044  -0.83960
 Alpha  occ. eigenvalues --   -0.82057  -0.80851  -0.78176  -0.77688  -0.74089
 Alpha  occ. eigenvalues --   -0.71972  -0.69252  -0.68724  -0.67309  -0.65900
 Alpha  occ. eigenvalues --   -0.63164  -0.60249  -0.59508  -0.58828  -0.57814
 Alpha  occ. eigenvalues --   -0.55353  -0.55332  -0.54431  -0.53832  -0.53367
 Alpha  occ. eigenvalues --   -0.52916  -0.51888  -0.51181  -0.50175  -0.49826
 Alpha  occ. eigenvalues --   -0.49331  -0.48909  -0.48097  -0.48016  -0.46797
 Alpha  occ. eigenvalues --   -0.46274  -0.45552  -0.44749  -0.44299  -0.43990
 Alpha  occ. eigenvalues --   -0.43821  -0.42535  -0.41901  -0.41702  -0.40262
 Alpha  occ. eigenvalues --   -0.38236  -0.36724  -0.35718  -0.35303  -0.33680
 Alpha  occ. eigenvalues --   -0.31901  -0.31422  -0.30231  -0.28832  -0.28290
 Alpha  occ. eigenvalues --   -0.25640
 Alpha virt. eigenvalues --    0.00386   0.01311   0.02426   0.05501   0.07689
 Alpha virt. eigenvalues --    0.07996   0.11158   0.11680   0.12675   0.13821
 Alpha virt. eigenvalues --    0.14262   0.14865   0.15123   0.16833   0.17414
 Alpha virt. eigenvalues --    0.17997   0.18374   0.18601   0.19643   0.19821
 Alpha virt. eigenvalues --    0.20121   0.20553   0.20922   0.21224   0.21548
 Alpha virt. eigenvalues --    0.22291   0.22859   0.23227   0.23285   0.24253
 Alpha virt. eigenvalues --    0.25357   0.26468   0.26834   0.28525   0.29902
 Alpha virt. eigenvalues --    0.30582   0.31362   0.32224   0.32674   0.33729
 Alpha virt. eigenvalues --    0.35976   0.36827   0.38454   0.38714   0.39888
 Alpha virt. eigenvalues --    0.40911   0.42095   0.44037   0.45202   0.46680
 Alpha virt. eigenvalues --    0.48386   0.49535   0.50958   0.51616   0.53171
 Alpha virt. eigenvalues --    0.53922   0.55579   0.56070   0.56342   0.56520
 Alpha virt. eigenvalues --    0.57207   0.57728   0.57983   0.59103   0.60070
 Alpha virt. eigenvalues --    0.60585   0.60743   0.61228   0.62295   0.62590
 Alpha virt. eigenvalues --    0.63873   0.64130   0.64925   0.65592   0.65704
 Alpha virt. eigenvalues --    0.66153   0.67178   0.67375   0.68854   0.69459
 Alpha virt. eigenvalues --    0.70294   0.70657   0.71092   0.72337   0.73191
 Alpha virt. eigenvalues --    0.73753   0.74623   0.76057   0.77417   0.79244
 Alpha virt. eigenvalues --    0.79731   0.79951   0.80994   0.81128   0.81775
 Alpha virt. eigenvalues --    0.83312   0.84086   0.84575   0.85239   0.85443
 Alpha virt. eigenvalues --    0.87063   0.88495   0.89287   0.89851   0.90398
 Alpha virt. eigenvalues --    0.91156   0.91558   0.91778   0.92164   0.92617
 Alpha virt. eigenvalues --    0.93251   0.93544   0.94072   0.94385   0.95401
 Alpha virt. eigenvalues --    0.95775   0.96174   0.96726   0.96835   0.97820
 Alpha virt. eigenvalues --    0.98104   0.99074   0.99356   0.99882   1.00344
 Alpha virt. eigenvalues --    1.01551   1.02405   1.03268   1.04131   1.05441
 Alpha virt. eigenvalues --    1.05655   1.05830   1.07967   1.08985   1.09694
 Alpha virt. eigenvalues --    1.10980   1.11750   1.12444   1.14116   1.15067
 Alpha virt. eigenvalues --    1.16916   1.17311   1.19493   1.20259   1.21250
 Alpha virt. eigenvalues --    1.22451   1.22858   1.23607   1.24414   1.27436
 Alpha virt. eigenvalues --    1.28743   1.29662   1.29911   1.30339   1.32151
 Alpha virt. eigenvalues --    1.33913   1.35611   1.36314   1.37095   1.37853
 Alpha virt. eigenvalues --    1.39332   1.42887   1.43311   1.44673   1.45326
 Alpha virt. eigenvalues --    1.46070   1.46663   1.47510   1.48697   1.50693
 Alpha virt. eigenvalues --    1.51272   1.52704   1.52869   1.54023   1.55474
 Alpha virt. eigenvalues --    1.55929   1.56211   1.58092   1.59887   1.60226
 Alpha virt. eigenvalues --    1.60617   1.66270   1.69699   1.72240   1.75045
 Alpha virt. eigenvalues --    1.77642   1.78005   1.80396   1.81302   1.82712
 Alpha virt. eigenvalues --    1.84021   1.85515   1.86699   1.86873   1.88487
 Alpha virt. eigenvalues --    1.88751   1.90556   1.90614   1.92076   1.92862
 Alpha virt. eigenvalues --    1.93503   1.93575   1.95290   1.95573   1.98197
 Alpha virt. eigenvalues --    1.98567   1.98942   1.99929   2.01826   2.02463
 Alpha virt. eigenvalues --    2.04531   2.04991   2.05689   2.07668   2.09069
 Alpha virt. eigenvalues --    2.09580   2.10262   2.11451   2.12195   2.12648
 Alpha virt. eigenvalues --    2.13937   2.14968   2.15480   2.17177   2.17908
 Alpha virt. eigenvalues --    2.19054   2.20557   2.21156   2.23215   2.24841
 Alpha virt. eigenvalues --    2.25861   2.27203   2.27656   2.27935   2.28472
 Alpha virt. eigenvalues --    2.29341   2.29726   2.30773   2.31957   2.33939
 Alpha virt. eigenvalues --    2.34499   2.36389   2.37135   2.38757   2.40269
 Alpha virt. eigenvalues --    2.41669   2.42836   2.43361   2.44467   2.45618
 Alpha virt. eigenvalues --    2.48109   2.49027   2.49284   2.49804   2.51351
 Alpha virt. eigenvalues --    2.56723   2.59460   2.60296   2.61426   2.64211
 Alpha virt. eigenvalues --    2.64470   2.68930   2.69988   2.70078   2.70376
 Alpha virt. eigenvalues --    2.71764   2.74455   2.76326   2.78877   2.79798
 Alpha virt. eigenvalues --    2.83793   2.83866   2.86765   2.87884   2.89268
 Alpha virt. eigenvalues --    2.89937   2.91511   2.98018   3.02786   3.03867
 Alpha virt. eigenvalues --    3.06131   3.10324   3.13268   3.21941   3.27450
 Alpha virt. eigenvalues --    3.45655   3.47672   3.92558   3.98527   4.06438
 Alpha virt. eigenvalues --    4.06591   4.09687   4.12897   4.15401   4.18331
 Alpha virt. eigenvalues --    4.19874   4.22179   4.22992   4.26777   4.28406
 Alpha virt. eigenvalues --    4.29046   4.30983   4.35415   4.37477   4.40124
 Alpha virt. eigenvalues --    4.47624   4.49043   4.56473   4.58062   4.79389
 Alpha virt. eigenvalues --    4.84207
          Condensed to atoms (all electrons):
               1          2          3          4          5          6
     1  S   14.924721   0.000001   0.341612  -0.000000  -0.049271   0.006731
     2  O    0.000001   8.308277   0.000000   0.000000   0.000000  -0.000000
     3  O    0.341612   0.000000   8.389274   0.000000  -0.000012   0.001345
     4  O   -0.000000   0.000000   0.000000   8.249707  -0.000027  -0.000000
     5  N   -0.049271   0.000000  -0.000012  -0.000027   7.141126  -0.107884
     6  N    0.006731  -0.000000   0.001345  -0.000000  -0.107884   6.995619
     7  N    0.001659  -0.000049   0.000994  -0.000000  -0.000000  -0.000002
     8  C    0.041083  -0.000078  -0.044300   0.000000   0.002776  -0.013388
     9  C   -0.047338   0.005051  -0.001811  -0.000000  -0.000007   0.000533
    10  C   -0.000105  -0.077446  -0.000354   0.000000   0.000000  -0.000002
    11  C   -0.040504  -0.000000  -0.045116   0.000001   0.321134   0.395565
    12  C    0.005884  -0.000000   0.000207   0.003113   0.241452  -0.072631
    13  C    0.000611   0.269639   0.000027   0.000000  -0.000000  -0.000000
    14  C   -0.005823  -0.000000  -0.000193   0.000420  -0.036745   0.364887
    15  C   -0.000247  -0.092418  -0.000021   0.000000   0.000000   0.000000
    16  C   -0.004017  -0.013092   0.000035  -0.000000  -0.000000  -0.000066
    17  C   -0.000064  -0.000000  -0.000000  -0.064087  -0.081000   0.013750
    18  C    0.000364   0.004386   0.000102   0.000000  -0.000000   0.000000
    19  C   -0.000434   0.000000  -0.000000   0.002419   0.011552  -0.073371
    20  C    0.000001  -0.000000  -0.000000   0.270934   0.002888  -0.000377
    21  C    0.000004   0.000000  -0.000000  -0.049692   0.000430   0.004561
    22  C   -0.000001  -0.002607  -0.000000   0.000000  -0.000000   0.000000
    23  C    0.000000   0.232537   0.000000   0.000000  -0.000000  -0.000000
    24  C   -0.000000   0.000000  -0.000000   0.238468  -0.000009   0.000000
    25  H   -0.004123  -0.000000   0.001738   0.000000   0.000026   0.007047
    26  H   -0.007446   0.000001  -0.000539   0.000000   0.000014   0.003667
    27  H    0.003426  -0.000000   0.003664   0.000000   0.312787   0.004326
    28  H    0.006816   0.000263  -0.000085   0.000000   0.000002   0.000134
    29  H   -0.000056   0.011253   0.000000   0.000000   0.000000  -0.000000
    30  H    0.000128   0.000358  -0.000000  -0.000000  -0.000000  -0.000006
    31  H   -0.000001   0.000000  -0.000000  -0.008062  -0.004813  -0.000163
    32  H   -0.000003  -0.000053   0.000004   0.000000   0.000000  -0.000000
    33  H    0.000006  -0.000000   0.000000  -0.000039  -0.000140  -0.001445
    34  H   -0.000000   0.000000   0.000000  -0.000635   0.000004  -0.000067
    35  H    0.000000   0.000267   0.000000   0.000000  -0.000000   0.000000
    36  H   -0.000000   0.000201  -0.000000   0.000000   0.000000  -0.000000
    37  H    0.000000   0.005551  -0.000000   0.000000  -0.000000   0.000000
    38  H   -0.000000  -0.029465   0.000000   0.000000  -0.000000  -0.000000
    39  H   -0.000000  -0.040749  -0.000000   0.000000  -0.000000   0.000000
    40  H   -0.000000  -0.039851  -0.000000   0.000000   0.000000  -0.000000
    41  H   -0.000000   0.000000  -0.000000  -0.035662  -0.000000   0.000000
    42  H    0.000000   0.000000  -0.000000  -0.030121  -0.000000  -0.000000
    43  H    0.000000   0.000000   0.000000  -0.035748  -0.000002   0.000000
               7          8          9         10         11         12
     1  S    0.001659   0.041083  -0.047338  -0.000105  -0.040504   0.005884
     2  O   -0.000049  -0.000078   0.005051  -0.077446  -0.000000  -0.000000
     3  O    0.000994  -0.044300  -0.001811  -0.000354  -0.045116   0.000207
     4  O   -0.000000   0.000000  -0.000000   0.000000   0.000001   0.003113
     5  N   -0.000000   0.002776  -0.000007   0.000000   0.321134   0.241452
     6  N   -0.000002  -0.013388   0.000533  -0.000002   0.395565  -0.072631
     7  N    6.788466  -0.092588   0.439052  -0.029516  -0.000107  -0.000000
     8  C   -0.092588   5.736697   0.326974  -0.085018   0.023308  -0.000161
     9  C    0.439052   0.326974   4.900396   0.444221   0.003767   0.000001
    10  C   -0.029516  -0.085018   0.444221   5.006571   0.000004  -0.000000
    11  C   -0.000107   0.023308   0.003767   0.000004   5.330631  -0.090094
    12  C   -0.000000  -0.000161   0.000001  -0.000000  -0.090094   4.777403
    13  C   -0.059246   0.004369  -0.004568   0.506126   0.000001  -0.000000
[...]
     8  C    0.000023   0.000000  -0.000000   0.000012   0.000001  -0.000000
     9  C   -0.000000   0.000000   0.000000   0.000078  -0.000285  -0.000000
    10  C    0.000000  -0.000000   0.000000   0.009393  -0.008201   0.000000
    11  C    0.004236   0.000033  -0.000046   0.000000  -0.000000   0.000000
    12  C   -0.054321   0.022408  -0.037396   0.000000   0.000000   0.000500
    13  C    0.000000  -0.000000   0.000000  -0.054437  -0.036809   0.000000
    14  C    0.533337  -0.034384  -0.025581   0.000000  -0.000000   0.000009
    15  C    0.000000   0.000000   0.000000   0.321763  -0.002901  -0.000000
    16  C    0.000001  -0.000000  -0.000000  -0.000129   0.000836  -0.000000
    17  C   -0.041798   0.489534  -0.074391  -0.000000   0.000000  -0.007833
    18  C   -0.000000   0.000000   0.000000  -0.053182  -0.000102  -0.000000
    19  C    4.940636  -0.020070   0.545537  -0.000000  -0.000000  -0.000129
    20  C   -0.020070   4.506316   0.537915   0.000000  -0.000000  -0.051638
    21  C    0.545537   0.537915   4.989910  -0.000000  -0.000000   0.004350
    22  C   -0.000000   0.000000  -0.000000   5.187707  -0.000876   0.000000
    23  C   -0.000000  -0.000000  -0.000000  -0.000876   4.916637   0.000000
    24  C   -0.000129  -0.051638   0.004350   0.000000   0.000000   4.916323
    25  H   -0.000028   0.000000  -0.000000  -0.000000  -0.000001  -0.000000
    26  H   -0.000001   0.000000   0.000000  -0.000001   0.000000  -0.000000
    27  H   -0.000083  -0.000056  -0.000001  -0.000000  -0.000000  -0.000000
    28  H   -0.000004   0.000000  -0.000000   0.000002   0.000079  -0.000000
    29  H   -0.000000   0.000000  -0.000000  -0.000013  -0.002751   0.000000
    30  H   -0.000000   0.000000  -0.000000   0.000001  -0.000138   0.000000
    31  H    0.000314  -0.036038   0.003329  -0.000000  -0.000000   0.005654
    32  H   -0.000000   0.000000  -0.000000  -0.002995   0.000002  -0.000000
    33  H    0.357740   0.003707  -0.038918   0.000000  -0.000000   0.000002
    34  H   -0.034379  -0.032109   0.357323  -0.000000  -0.000000  -0.000161
    35  H   -0.000000  -0.000000   0.000000   0.375526  -0.000008   0.000000
    36  H    0.000000  -0.000000   0.000000   0.370609   0.001474   0.000000
    37  H   -0.000000   0.000000  -0.000000   0.376996  -0.000376   0.000000
    38  H    0.000000  -0.000000   0.000000  -0.000081   0.388532   0.000000
    39  H   -0.000000  -0.000000  -0.000000   0.000317   0.374711   0.000000
    40  H    0.000000   0.000000   0.000000  -0.001194   0.375233   0.000000
    41  H   -0.000001  -0.004508  -0.000022   0.000000   0.000000   0.372811
    42  H    0.000003   0.003238  -0.000079   0.000000   0.000000   0.392597
    43  H   -0.000002  -0.004568  -0.000026   0.000000   0.000000   0.372868
              25         26         27         28         29         30
     1  S   -0.006788  -0.006541   0.000611   0.003264  -0.000052   0.000083
     2  O   -0.000000   0.000000   0.000000   0.000183   0.012001   0.000333
     3  O    0.001812   0.000591   0.021299  -0.000015  -0.000000  -0.000000
     4  O    0.000000  -0.000000   0.000000   0.000000   0.000000  -0.000000
     5  N    0.000544   0.000110   0.301258   0.000059   0.000000  -0.000000
     6  N    0.010354   0.000519   0.004685   0.004913   0.000018   0.000049
     7  N    0.002699   0.007043   0.000000  -0.000053  -0.000087  -0.000060
     8  C    0.319901   0.333589   0.000114   0.004305   0.000120  -0.000741
     9  C   -0.028043  -0.023038  -0.000001  -0.010526   0.003668  -0.001093
    10  C   -0.004732   0.003275  -0.000000  -0.025187  -0.031825  -0.027298
    11  C   -0.007867  -0.004283  -0.029558   0.000013   0.000005  -0.000042
    12  C    0.000047  -0.000003  -0.017898  -0.000001   0.000000   0.000000
    13  C    0.000017   0.000041  -0.000000   0.002557  -0.007374  -0.001965
    14  C   -0.000022  -0.000075   0.004404   0.000039  -0.000000   0.000002
    15  C    0.000007  -0.000029   0.000000  -0.000056   0.000370  -0.000274
    16  C    0.000177   0.000025  -0.000000   0.367968   0.373345   0.368564
    17  C   -0.000002  -0.000000  -0.001781  -0.000000  -0.000000  -0.000000
    18  C   -0.000086   0.000506  -0.000000  -0.000006  -0.000011   0.000045
    19  C   -0.000028  -0.000001  -0.000083  -0.000004  -0.000000  -0.000000
    20  C    0.000000   0.000000  -0.000056   0.000000   0.000000   0.000000
    21  C   -0.000000   0.000000  -0.000001  -0.000000  -0.000000  -0.000000
    22  C   -0.000000  -0.000001  -0.000000   0.000002  -0.000013   0.000001
    23  C   -0.000001   0.000000  -0.000000   0.000079  -0.002751  -0.000138
    24  C   -0.000000  -0.000000  -0.000000  -0.000000   0.000000   0.000000
    25  H    0.484221  -0.009252  -0.000048  -0.001906   0.000089   0.002768
    26  H   -0.009252   0.446437   0.000085   0.000051  -0.000001   0.000036
    27  H   -0.000048   0.000085   0.320669  -0.000001  -0.000000   0.000000
    28  H   -0.001906   0.000051  -0.000001   0.504185  -0.020357  -0.028896
    29  H    0.000089  -0.000001  -0.000000  -0.020357   0.502163  -0.025686
    30  H    0.002768   0.000036   0.000000  -0.028896  -0.025686   0.528601
    31  H    0.000000   0.000000   0.001261   0.000000   0.000000  -0.000000
    32  H    0.000002  -0.000025   0.000000  -0.000000   0.000000  -0.000000
    33  H    0.000007   0.000000   0.000002   0.000003   0.000000   0.000000
    34  H   -0.000000   0.000000  -0.000000  -0.000000   0.000000  -0.000000
    35  H   -0.000000  -0.000000  -0.000000  -0.000000   0.000000  -0.000000
    36  H   -0.000000  -0.000000   0.000000   0.000000   0.000000  -0.000000
    37  H    0.000000   0.000000  -0.000000  -0.000000  -0.000000   0.000000
    38  H    0.000000   0.000000   0.000000   0.000000   0.000037  -0.000028
    39  H   -0.000001  -0.000000   0.000000   0.000048  -0.002571   0.001068
    40  H    0.000000   0.000000   0.000000  -0.000002   0.000374  -0.000009
    41  H    0.000000   0.000000  -0.000000  -0.000000  -0.000000   0.000000
    42  H    0.000000  -0.000000   0.000000   0.000000   0.000000   0.000000
    43  H   -0.000000  -0.000000  -0.000001   0.000000   0.000000  -0.000000
              31         32         33         34         35         36
     1  S   -0.000001  -0.000009   0.000003  -0.000000   0.000000  -0.000000
     2  O    0.000000  -0.000060   0.000000   0.000000   0.000366   0.000451
     3  O   -0.000001   0.000000   0.000000   0.000000   0.000000  -0.000000
     4  O   -0.006838   0.000000  -0.000047  -0.000116   0.000000   0.000000
     5  N   -0.004201   0.000000  -0.000122   0.000004  -0.000000   0.000000
     6  N   -0.000133   0.000000  -0.001583  -0.000068   0.000000  -0.000000
     7  N   -0.000000  -0.048736  -0.000000   0.000000   0.000149  -0.000104
     8  C   -0.000000  -0.000237  -0.000001  -0.000000   0.000000   0.000000
     9  C   -0.000000   0.005101  -0.000000   0.000000  -0.000007   0.000040
    10  C   -0.000000   0.000375   0.000000  -0.000000  -0.000076  -0.000182
    11  C   -0.000157  -0.000000   0.000017   0.000003  -0.000000  -0.000000
    12  C   -0.025104  -0.000000   0.006014   0.000149   0.000000  -0.000000
    13  C   -0.000000   0.003010  -0.000000  -0.000000   0.004350  -0.005985
    14  C    0.003538  -0.000000  -0.030841   0.003091  -0.000000  -0.000000
    15  C    0.000000  -0.063689   0.000000  -0.000000  -0.034931  -0.026171
    16  C   -0.000000   0.000020  -0.000000  -0.000000   0.000002  -0.000001
    17  C    0.350455  -0.000000   0.000020   0.006808   0.000000  -0.000000
    18  C   -0.000000   0.385788   0.000000  -0.000000  -0.002252   0.000717
    19  C    0.000314  -0.000000   0.357740  -0.034379  -0.000000   0.000000
    20  C   -0.036038   0.000000   0.003707  -0.032109  -0.000000  -0.000000
    21  C    0.003329  -0.000000  -0.038918   0.357323   0.000000   0.000000
    22  C   -0.000000  -0.002995   0.000000  -0.000000   0.375526   0.370609
    23  C   -0.000000   0.000002  -0.000000  -0.000000  -0.000008   0.001474
    24  C    0.005654  -0.000000   0.000002  -0.000161   0.000000   0.000000
    25  H    0.000000   0.000002   0.000007  -0.000000  -0.000000  -0.000000
    26  H    0.000000  -0.000025   0.000000   0.000000  -0.000000  -0.000000
    27  H    0.001261   0.000000   0.000002  -0.000000  -0.000000   0.000000
    28  H    0.000000  -0.000000   0.000003  -0.000000  -0.000000   0.000000
    29  H    0.000000   0.000000   0.000000   0.000000   0.000000   0.000000
    30  H   -0.000000  -0.000000   0.000000  -0.000000  -0.000000  -0.000000
    31  H    0.534082  -0.000000   0.000013  -0.000123  -0.000000   0.000000
    32  H   -0.000000   0.549114   0.000000  -0.000000   0.005146   0.000023
    33  H    0.000013   0.000000   0.528399  -0.004753  -0.000000  -0.000000
    34  H   -0.000123  -0.000000  -0.004753   0.528809   0.000000   0.000000
    35  H   -0.000000   0.005146  -0.000000   0.000000   0.527407  -0.026338
    36  H    0.000000   0.000023  -0.000000   0.000000  -0.026338   0.538954
    37  H   -0.000000   0.000022   0.000000  -0.000000  -0.024027  -0.029449
    38  H    0.000000  -0.000000  -0.000000   0.000000  -0.000001  -0.000075
    39  H   -0.000000  -0.000001  -0.000000   0.000000   0.000002  -0.000016
    40  H    0.000000   0.000007  -0.000000   0.000000  -0.000047   0.001424
    41  H    0.001293   0.000000  -0.000000   0.000026   0.000000   0.000000
    42  H   -0.000075   0.000000  -0.000000  -0.000028   0.000000   0.000000
    43  H    0.001319  -0.000000  -0.000000   0.000026   0.000000   0.000000
              37         38         39         40         41         42
     1  S    0.000000  -0.000000   0.000000  -0.000000  -0.000000   0.000000
     2  O    0.002678  -0.031283  -0.041239  -0.040421   0.000000   0.000000
     3  O    0.000000  -0.000000   0.000000  -0.000000   0.000000  -0.000000
     4  O    0.000000   0.000000  -0.000000   0.000000  -0.037418  -0.032772
     5  N   -0.000000   0.000000  -0.000000   0.000000  -0.000001  -0.000000
     6  N   -0.000000  -0.000000  -0.000000  -0.000000   0.000000  -0.000000
     7  N   -0.000105  -0.000000  -0.000006  -0.000007  -0.000000  -0.000000
     8  C   -0.000000  -0.000000   0.000017  -0.000001   0.000000  -0.000000
     9  C    0.000027   0.000009  -0.000494   0.000061   0.000000   0.000000
    10  C   -0.000065  -0.000058   0.004313   0.000250  -0.000000  -0.000000
    11  C    0.000000   0.000000  -0.000000   0.000000   0.000000   0.000000
    12  C    0.000000  -0.000000   0.000000  -0.000000  -0.000220   0.000007
    13  C   -0.005407   0.004029  -0.002585  -0.001794  -0.000000   0.000000
    14  C    0.000000  -0.000000  -0.000000   0.000000  -0.000007   0.000000
    15  C   -0.027524  -0.000036  -0.001134   0.005844   0.000000   0.000000
    16  C    0.000001  -0.000069   0.001697   0.000146   0.000000  -0.000000
    17  C    0.000000  -0.000000   0.000000  -0.000000   0.004677   0.000268
    18  C    0.000684   0.000007   0.000012  -0.000268   0.000000   0.000000
    19  C   -0.000000   0.000000  -0.000000   0.000000  -0.000001   0.000003
    20  C    0.000000  -0.000000  -0.000000   0.000000  -0.004508   0.003238
    21  C   -0.000000   0.000000  -0.000000   0.000000  -0.000022  -0.000079
    22  C    0.376996  -0.000081   0.000317  -0.001194   0.000000   0.000000
    23  C   -0.000376   0.388532   0.374711   0.375233   0.000000   0.000000
    24  C    0.000000   0.000000   0.000000   0.000000   0.372811   0.392597
    25  H    0.000000   0.000000  -0.000001   0.000000   0.000000   0.000000
    26  H    0.000000   0.000000  -0.000000   0.000000   0.000000  -0.000000
    27  H   -0.000000   0.000000   0.000000   0.000000  -0.000000   0.000000
    28  H   -0.000000   0.000000   0.000048  -0.000002  -0.000000   0.000000
    29  H   -0.000000   0.000037  -0.002571   0.000374  -0.000000   0.000000
    30  H    0.000000  -0.000028   0.001068  -0.000009   0.000000   0.000000
    31  H   -0.000000   0.000000  -0.000000   0.000000   0.001293  -0.000075
    32  H    0.000022  -0.000000  -0.000001   0.000007   0.000000   0.000000
    33  H    0.000000  -0.000000  -0.000000  -0.000000  -0.000000  -0.000000
    34  H   -0.000000   0.000000   0.000000   0.000000   0.000026  -0.000028
    35  H   -0.024027  -0.000001   0.000002  -0.000047   0.000000   0.000000
    36  H   -0.029449  -0.000075  -0.000016   0.001424   0.000000   0.000000
    37  H    0.509933   0.000024   0.000011   0.000055   0.000000   0.000000
    38  H    0.000024   0.509273  -0.029827  -0.028570   0.000000   0.000000
    39  H    0.000011  -0.029827   0.578721  -0.043908   0.000000   0.000000
    40  H    0.000055  -0.028570  -0.043908   0.571635   0.000000   0.000000
    41  H    0.000000   0.000000   0.000000   0.000000   0.576689  -0.028394
    42  H    0.000000   0.000000   0.000000   0.000000  -0.028394   0.501909
    43  H    0.000000   0.000000  -0.000000   0.000000  -0.047393  -0.028354
              43
     1  S    0.000000
     2  O    0.000000
     3  O   -0.000000
     4  O   -0.037378
     5  N   -0.000001
     6  N    0.000000
     7  N    0.000000
     8  C    0.000000
     9  C   -0.000000
    10  C    0.000000
    11  C    0.000000
    12  C   -0.000188
    13  C    0.000000
    14  C   -0.000005
    15  C   -0.000000
    16  C   -0.000000
    17  C    0.004718
    18  C   -0.000000
    19  C   -0.000002
    20  C   -0.004568
    21  C   -0.000026
    22  C    0.000000
    23  C    0.000000
    24  C    0.372868
    25  H   -0.000000
    26  H   -0.000000
    27  H   -0.000001
    28  H    0.000000
    29  H    0.000000
    30  H   -0.000000
    31  H    0.001319
    32  H   -0.000000
    33  H   -0.000000
    34  H    0.000026
    35  H    0.000000
    36  H    0.000000
    37  H    0.000000
    38  H    0.000000
    39  H   -0.000000
    40  H    0.000000
    41  H   -0.047393
    42  H   -0.028354
    43  H    0.576165
 Mulliken charges:
               1
     1  S    0.862532
     2  O   -0.535911
     3  O   -0.665838
     4  O   -0.531810
     5  N   -0.733216
     6  N   -0.522516
     7  N   -0.459796
     8  C   -0.590007
     9  C    0.189824
    10  C    0.109727
    11  C    0.197519
    12  C    0.321368
    13  C    0.249577
    14  C    0.173058
    15  C    0.088538
    16  C   -0.568761
    17  C   -0.228825
    18  C   -0.031633
    19  C   -0.175382
    20  C    0.345142
    21  C   -0.212142
    22  C   -0.537164
    23  C   -0.236509
    24  C   -0.239868
    25  H    0.236133
    26  H    0.250941
    27  H    0.395040
    28  H    0.199339
    29  H    0.198538
    30  H    0.184680
    31  H    0.171413
    32  H    0.167141
    33  H    0.180338
    34  H    0.175496
    35  H    0.174740
    36  H    0.174629
    37  H    0.196524
    38  H    0.188116
    39  H    0.160863
    40  H    0.161192
    41  H    0.162469
    42  H    0.191681
    43  H    0.162819
 Sum of Mulliken charges =  -0.00000
 Mulliken charges with hydrogens summed into heavy atoms:
               1
     1  S    0.862532
     2  O   -0.535911
     3  O   -0.665838
     4  O   -0.531810
     5  N   -0.338177
     6  N   -0.522516
     7  N   -0.459796
     8  C   -0.102933
     9  C    0.189824
    10  C    0.109727
    11  C    0.197519
    12  C    0.321368
    13  C    0.249577
    14  C    0.173058
    15  C    0.088538
    16  C    0.013796
    17  C   -0.057412
    18  C    0.135508
    19  C    0.004956
    20  C    0.345142
    21  C   -0.036646
    22  C    0.008730
    23  C    0.273661
    24  C    0.277102
 Electronic spatial extent (au):  <R**2>=          13768.4652
 Charge=             -0.0000 electrons
 Dipole moment (field-independent basis, Debye):
    X=             -0.3397    Y=              1.8046    Z=              1.2726  Tot=              2.2342
 Quadrupole moment (field-independent basis, Debye-Ang):
   XX=           -108.4129   YY=           -146.2276   ZZ=           -150.7979
   XY=            -20.6480   XZ=             -4.6275   YZ=              1.6969
 Traceless Quadrupole moment (field-independent basis, Debye-Ang):
   XX=             26.7333   YY=            -11.0815   ZZ=            -15.6518
   XY=            -20.6480   XZ=             -4.6275   YZ=              1.6969
 Octapole moment (field-independent basis, Debye-Ang**2):
  XXX=              4.3398  YYY=             49.9757  ZZZ=             -7.5219  XYY=              2.2869
  XXY=            -65.3638  XXZ=             25.5698  XZZ=             -0.0288  YZZ=             -3.2245
  YYZ=              8.5595  XYZ=             -7.3882
 Hexadecapole moment (field-independent basis, Debye-Ang**3):
 XXXX=         -13881.1759 YYYY=          -1800.1173 ZZZZ=           -394.7026 XXXY=           -695.6803
 XXXZ=           -126.6210 YYYX=           -116.2183 YYYZ=             -2.7930 ZZZX=             25.7328
 ZZZY=              6.2004 XXYY=          -2652.5981 XXZZ=          -2844.2850 YYZZ=           -382.3356
 XXYZ=             45.8420 YYXZ=             -0.3565 ZZXY=            -29.2046
 N-N= 2.121321065061D+03 E-N=-7.628291896610D+03  KE= 1.436982038076D+03
 No NMR shielding tensors so no spin-rotation constants.
 Leave Link  601 at Mon Jun  9 11:36:14 2025, MaxMem=  5368709120 cpu:               3.2 elap:               0.2
 (Enter /opt/software/custom/apps/gaussian/x86_64-legacy/g16/l9999.exe)
 1\1\GINC-C02\FOpt\RM062X\6-31G(d)\C17H19N3O3S1\PHFMATIAS\09-Jun-2025\0
 \\#p opt M062X/6-31g(d)\\9568614\\0,1\S,0.3688434553,1.2056992006,-0.9
 524477617\O,5.3424253667,-1.4895537053,-0.6792172851\O,0.0056319728,2.
 6700392884,-0.9392862717\O,-6.8841819739,-0.4889227914,0.1538027182\N,
 -2.3106730492,1.1858929923,-0.6253833514\N,-1.4077370266,-0.852081508,
 -0.349121592\N,3.3246952693,1.8136200464,0.8005229607\C,1.1701233028,0
 .7543976498,0.6509704006\C,2.6604232556,0.7019778902,0.4801602913\C,3.
 2723420145,-0.4542859356,-0.0312885436\C,-1.1946357671,0.4065236049,-0
 .5902708234\C,-3.3703969166,0.3456051693,-0.3641658642\C,4.6599541032,
 -0.4088749769,-0.178689221\C,-2.7865443708,-0.9256217585,-0.1977140163
 \C,5.3815563475,0.7437527159,0.1415850912\C,2.4879574462,-1.6832510791
 ,-0.4103064119\C,-4.7467787647,0.5788743669,-0.260715193\C,4.644769167
 3,1.8222443224,0.6250429958\C,-3.6077624294,-2.0269949409,0.0848667938
 \C,-5.5320798228,-0.5310918951,0.0196660825\C,-4.9652530637,-1.8184125
 874,0.1894081267\C,6.8704413413,0.8032445827,-0.0501219292\C,5.6265403
 571,-2.4753669684,0.303478236\C,-7.5124293341,0.7622227843,-0.00422232
 44\H,0.7346777085,-0.2021710755,0.9514750081\H,0.8850458302,1.54973315
 69,1.3441724354\H,-2.2741387781,2.1898358071,-0.7600452398\H,1.5689477
 186,-1.4327410307,-0.9491841663\H,3.0908250776,-2.3312153127,-1.049440
 3169\H,2.1870226601,-2.2548934383,0.4761387078\H,-5.1614816454,1.56989
 54202,-0.394193453\H,5.1561419727,2.7470651737,0.8878335388\H,-3.17528
 81311,-3.0130069067,0.2152919956\H,-5.6467608687,-2.6337005031,0.40552
 88176\H,7.2486884667,1.8009345357,0.1850628795\H,7.3875046807,0.083812
 1182,0.593448871\H,7.1383327474,0.5602878476,-1.0820612128\H,6.1914582
 445,-3.2620049227,-0.1976196697\H,4.7039642675,-2.8959371306,0.7210659
 291\H,6.2261388341,-2.0538245075,1.1191845027\H,-7.1574604655,1.482916
 9086,0.742985964\H,-8.578660141,0.5878651196,0.1382283072\H,-7.3401890
 595,1.1699122728,-1.0081260062\\Version=EM64L-G16RevB.01\State=1-A\HF=
 -1446.8420977\RMSD=7.108e-09\RMSF=2.783e-06\Dipole=0.1314566,-0.681461
 5,0.5394198\Quadrupole=19.9951707,-8.6323804,-11.3627903,-14.8880684,4
 .7187747,-1.6164614\PG=C01 [X(C17H19N3O3S1)]\\@


 KNOWLEDGE IS OF TWO KINDS:  WE KNOW A SUBJECT OURSELVES OR WE KNOW 
 WHERE WE CAN FIND INFORMATION UPON IT.

                                    -- SAMUEL JOHNSON
 Job cpu time:       0 days  6 hours 46 minutes 23.2 seconds.
 Elapsed time:       0 days  0 hours 20 minutes 35.7 seconds.
 File lengths (MBytes):  RWF=    112 Int=      0 D2E=      0 Chk=     14 Scr=      1
 Normal termination of Gaussian 16 at Mon Jun  9 11:36:14 2025.
