 Entering Gaussian System, Link 0=g16
 Input=Impureza4.gjf
 Output=Impureza4.log
 Initial command:
 /opt/software/custom/apps/gaussian/x86_64-legacy/g16/l1.exe "/scratch/global/Gau-482991.inp" -scrdir="/scratch/global/"
 Entering Link 1 = /opt/software/custom/apps/gaussian/x86_64-legacy/g16/l1.exe PID=    482992.
  
 Copyright (c) 1988-2017, Gaussian, Inc.  All Rights Reserved.
  
 This is part of the Gaussian(R) 16 program.  It is based on
 the Gaussian(R) 09 system (copyright 2009, Gaussian, Inc.),
 the Gaussian(R) 03 system (copyright 2003, Gaussian, Inc.),
 the Gaussian(R) 98 system (copyright 1998, Gaussian, Inc.),
 the Gaussian(R) 94 system (copyright 1995, Gaussian, Inc.),
 the Gaussian 92(TM) system (copyright 1992, Gaussian, Inc.),
 the Gaussian 90(TM) system (copyright 1990, Gaussian, Inc.),
 the Gaussian 88(TM) system (copyright 1988, Gaussian, Inc.),
 the Gaussian 86(TM) system (copyright 1986, Carnegie Mellon
 University), and the Gaussian 82(TM) system (copyright 1983,
 Carnegie Mellon University). Gaussian is a federally registered
 trademark of Gaussian, Inc.
  
 This software contains proprietary and confidential information,
 including trade secrets, belonging to Gaussian, Inc.
  
 This software is provided under written license and may be
 used, copied, transmitted, or stored only in accord with that
 written license.
  
 The following legend is applicable only to US Government
 contracts under FAR:
  
                    RESTRICTED RIGHTS LEGEND
  
 Use, reproduction and disclosure by the US Government is
 subject to restrictions as set forth in subparagraphs (a)
 and (c) of the Commercial Computer Software - Restricted
 Rights clause in FAR 52.227-19.
  
 Gaussian, Inc.
 340 Quinnipiac St., Bldg. 40, Wallingford CT 06492
  
  
 ---------------------------------------------------------------
 Warning -- This program may not be used in any manner that
 competes with the business of Gaussian, Inc. or will provide
 assistance to any competitor of Gaussian, Inc.  The licensee
 of this program is prohibited from giving any competitor of
 Gaussian, Inc. access to this program.  By using this program,
 the user acknowledges that Gaussian, Inc. is engaged in the
 business of creating and licensing software in the field of
 computational chemistry and represents and warrants to the
 licensee that it is not a competitor of Gaussian, Inc. and that
 it will not use this program in any manner prohibited above.
 ---------------------------------------------------------------
  

 Cite this work as:
 Gaussian 16, Revision B.01,
 M. J. Frisch, G. W. Trucks, H. B. Schlegel, G. E. Scuseria, 
 M. A. Robb, J. R. Cheeseman, G. Scalmani, V. Barone, 
 G. A. Petersson, H. Nakatsuji, X. Li, M. Caricato, A. V. Marenich, 
 J. Bloino, B. G. Janesko, R. Gomperts, B. Mennucci, H. P. Hratchian, 
 J. V. Ortiz, A. F. Izmaylov, J. L. Sonnenberg, D. Williams-Young, 
 F. Ding, F. Lipparini, F. Egidi, J. Goings, B. Peng, A. Petrone, 
 T. Henderson, D. Ranasinghe, V. G. Zakrzewski, J. Gao, N. Rega, 
 G. Zheng, W. Liang, M. Hada, M. Ehara, K. Toyota, R. Fukuda, 
 J. Hasegawa, M. Ishida, T. Nakajima, Y. Honda, O. Kitao, H. Nakai, 
 T. Vreven, K. Throssell, J. A. Montgomery, Jr., J. E. Peralta, 
 F. Ogliaro, M. J. Bearpark, J. J. Heyd, E. N. Brothers, K. N. Kudin, 
 V. N. Staroverov, T. A. Keith, R. Kobayashi, J. Normand, 
 K. Raghavachari, A. P. Rendell, J. C. Burant, S. S. Iyengar, 
 J. Tomasi, M. Cossi, J. M. Millam, M. Klene, C. Adamo, R. Cammi, 
 J. W. Ochterski, R. L. Martin, K. Morokuma, O. Farkas, 
 J. B. Foresman, and D. J. Fox, Gaussian, Inc., Wallingford CT, 2016.
 
 ******************************************
 Gaussian 16:  EM64L-G16RevB.01 20-Dec-2017
                 9-Jun-2025 
 ******************************************
 %nprocshared=20
 Will use up to   20 processors via shared memory.
 %mem=40GB
 %chk=Impureza4.chk
 ---------------------
 #p opt M062X/6-31g(d)
 ---------------------
 1/18=20,19=15,26=3,38=1/1,3;
 2/9=110,12=2,17=6,18=5,40=1/2;
 3/5=1,6=6,7=1,11=2,25=1,30=1,71=1,74=-55/1,2,3;
 4//1;
 5/5=2,38=5/2;
 6/7=2,8=2,9=2,10=2,28=1/1;
 7//1,2,3,16;
 1/18=20,19=15,26=3/3(2);
 2/9=110/2;
 99//99;
 2/9=110/2;
 3/5=1,6=6,7=1,11=2,25=1,30=1,71=1,74=-55/1,2,3;
 4/5=5,16=3,69=1/1;
 5/5=2,38=5/2;
 7//1,2,3,16;
 1/18=20,19=15,26=3/3(-5);
 2/9=110/2;
 6/7=2,8=2,9=2,10=2,19=2,28=1/1;
 99/9=1/99;
 Leave Link    1 at Mon Jun  9 12:37:45 2025, MaxMem=  5368709120 cpu:               0.8 elap:               0.0
 (Enter /opt/software/custom/apps/gaussian/x86_64-legacy/g16/l101.exe)
 ----------
 C17H17N3O2
 ----------
 Symbolic Z-matrix:
 Charge =  0 Multiplicity = 1
 C                     6.0274   -1.9486   -0.0459 
 O                     4.6021   -2.0392    0.0002 
 C                     3.908    -0.8698   -0.0203 
 C                     4.5915    0.339    -0.0835 
 C                     3.9006    1.5307   -0.1049 
 C                     2.5032    1.5259   -0.0632 
 N                     1.5734    2.515    -0.0707 
 C                     0.3601    1.9861   -0.0164 
 C                    -1.0086    2.3097    0.012 
 C                    -1.7258    1.1227    0.0748 
 N                    -0.8283    0.0768    0.0856 
 C                    -1.276    -1.2119    0.1437 
 C                    -2.5946   -1.4838    0.1908 
 C                    -3.0627   -2.9149    0.254 
 C                    -3.54     -0.4359    0.1818 
 O                    -4.8664   -0.7119    0.2297 
 C                    -5.4355   -1.3612   -0.909 
 C                    -3.1073    0.8605    0.1242 
 C                    -4.0991    1.9951    0.1139 
 N                     0.4647    0.6128    0.029 
 C                     1.8156    0.3016    0.0003 
 C                     2.5232   -0.8894    0.0162 
 H                     6.3834   -1.3817    0.8143 
 H                     6.4561   -2.9505   -0.0234 
 H                     6.33     -1.4445   -0.9637 
 H                     5.671     0.344    -0.1158 
 H                     4.4373    2.4667   -0.1533 
 H                    -1.4272    3.305    -0.0106 
 H                    -0.5638   -2.0237    0.1517 
 H                    -2.2008   -3.5753    0.3487 
 H                    -3.7169   -3.0454    1.1161 
 H                    -3.6092   -3.159    -0.657 
 H                    -5.2053   -0.7879   -1.8069 
 H                    -5.0186   -2.3641   -1.0014 
 H                    -6.5167   -1.427    -0.7871 
 H                    -5.111     1.5928    0.0678 
 H                    -3.9841    2.5865    1.0223 
 H                    -3.9193    2.6269   -0.756 
 H                     1.9964   -1.8312    0.06 
 
 ITRead=  0  0  0  0  0  0  0  0  0  0  0  0  0  0  0  0  0  0  0  0
 ITRead=  0  0  0  0  0  0  0  0  0  0  0  0  0  0  0  0  0  0  0
 MicOpt= -1 -1 -1 -1 -1 -1 -1 -1 -1 -1 -1 -1 -1 -1 -1 -1 -1 -1 -1 -1
 MicOpt= -1 -1 -1 -1 -1 -1 -1 -1 -1 -1 -1 -1 -1 -1 -1 -1 -1 -1 -1
 NAtoms=     39 NQM=       39 NQMF=       0 NMMI=      0 NMMIF=      0
                NMic=       0 NMicF=      0.
                    Isotopes and Nuclear Properties:
 (Nuclear quadrupole moments (NQMom) in fm**2, nuclear magnetic moments (NMagM)
  in nuclear magnetons)

  Atom         1           2           3           4           5           6           7           8           9          10
 IAtWgt=          12          16          12          12          12          12          14          12          12          12
 AtmWgt=  12.0000000  15.9949146  12.0000000  12.0000000  12.0000000  12.0000000  14.0030740  12.0000000  12.0000000  12.0000000
 NucSpn=           0           0           0           0           0           0           2           0           0           0
 AtZEff=  -0.0000000  -0.0000000  -0.0000000  -0.0000000  -0.0000000  -0.0000000  -0.0000000  -0.0000000  -0.0000000  -0.0000000
 NQMom=    0.0000000   0.0000000   0.0000000   0.0000000   0.0000000   0.0000000   2.0440000   0.0000000   0.0000000   0.0000000
 NMagM=    0.0000000   0.0000000   0.0000000   0.0000000   0.0000000   0.0000000   0.4037610   0.0000000   0.0000000   0.0000000
 AtZNuc=   6.0000000   8.0000000   6.0000000   6.0000000   6.0000000   6.0000000   7.0000000   6.0000000   6.0000000   6.0000000

  Atom        11          12          13          14          15          16          17          18          19          20
 IAtWgt=          14          12          12          12          12          16          12          12          12          14
 AtmWgt=  14.0030740  12.0000000  12.0000000  12.0000000  12.0000000  15.9949146  12.0000000  12.0000000  12.0000000  14.0030740
 NucSpn=           2           0           0           0           0           0           0           0           0           2
 AtZEff=  -0.0000000  -0.0000000  -0.0000000  -0.0000000  -0.0000000  -0.0000000  -0.0000000  -0.0000000  -0.0000000  -0.0000000
 NQMom=    2.0440000   0.0000000   0.0000000   0.0000000   0.0000000   0.0000000   0.0000000   0.0000000   0.0000000   2.0440000
 NMagM=    0.4037610   0.0000000   0.0000000   0.0000000   0.0000000   0.0000000   0.0000000   0.0000000   0.0000000   0.4037610
 AtZNuc=   7.0000000   6.0000000   6.0000000   6.0000000   6.0000000   8.0000000   6.0000000   6.0000000   6.0000000   7.0000000

  Atom        21          22          23          24          25          26          27          28          29          30
 IAtWgt=          12          12           1           1           1           1           1           1           1           1
 AtmWgt=  12.0000000  12.0000000   1.0078250   1.0078250   1.0078250   1.0078250   1.0078250   1.0078250   1.0078250   1.0078250
 NucSpn=           0           0           1           1           1           1           1           1           1           1
 AtZEff=  -0.0000000  -0.0000000  -0.0000000  -0.0000000  -0.0000000  -0.0000000  -0.0000000  -0.0000000  -0.0000000  -0.0000000
 NQMom=    0.0000000   0.0000000   0.0000000   0.0000000   0.0000000   0.0000000   0.0000000   0.0000000   0.0000000   0.0000000
 NMagM=    0.0000000   0.0000000   2.7928460   2.7928460   2.7928460   2.7928460   2.7928460   2.7928460   2.7928460   2.7928460
 AtZNuc=   6.0000000   6.0000000   1.0000000   1.0000000   1.0000000   1.0000000   1.0000000   1.0000000   1.0000000   1.0000000

  Atom        31          32          33          34          35          36          37          38          39
 IAtWgt=           1           1           1           1           1           1           1           1           1
 AtmWgt=   1.0078250   1.0078250   1.0078250   1.0078250   1.0078250   1.0078250   1.0078250   1.0078250   1.0078250
 NucSpn=           1           1           1           1           1           1           1           1           1
 AtZEff=  -0.0000000  -0.0000000  -0.0000000  -0.0000000  -0.0000000  -0.0000000  -0.0000000  -0.0000000  -0.0000000
 NQMom=    0.0000000   0.0000000   0.0000000   0.0000000   0.0000000   0.0000000   0.0000000   0.0000000   0.0000000
 NMagM=    2.7928460   2.7928460   2.7928460   2.7928460   2.7928460   2.7928460   2.7928460   2.7928460   2.7928460
 AtZNuc=   1.0000000   1.0000000   1.0000000   1.0000000   1.0000000   1.0000000   1.0000000   1.0000000   1.0000000
 Leave Link  101 at Mon Jun  9 12:37:45 2025, MaxMem=  5368709120 cpu:               6.8 elap:               0.4
 (Enter /opt/software/custom/apps/gaussian/x86_64-legacy/g16/l103.exe)

 GradGradGradGradGradGradGradGradGradGradGradGradGradGradGradGradGradGrad
 Berny optimization.
 Initialization pass.
                           ----------------------------
                           !    Initial Parameters    !
                           ! (Angstroms and Degrees)  !
 --------------------------                            --------------------------
 ! Name  Definition              Value          Derivative Info.                !
 --------------------------------------------------------------------------------
 ! R1    R(1,2)                  1.4289         estimate D2E/DX2                !
 ! R2    R(1,23)                 1.09           estimate D2E/DX2                !
 ! R3    R(1,24)                 1.09           estimate D2E/DX2                !
 ! R4    R(1,25)                 1.09           estimate D2E/DX2                !
 ! R5    R(2,3)                  1.36           estimate D2E/DX2                !
 ! R6    R(3,4)                  1.3901         estimate D2E/DX2                !
 ! R7    R(3,22)                 1.3854         estimate D2E/DX2                !
 ! R8    R(4,5)                  1.3777         estimate D2E/DX2                !
 ! R9    R(4,26)                 1.08           estimate D2E/DX2                !
 ! R10   R(5,6)                  1.398          estimate D2E/DX2                !
 ! R11   R(5,27)                 1.08           estimate D2E/DX2                !
 ! R12   R(6,7)                  1.3575         estimate D2E/DX2                !
 ! R13   R(6,21)                 1.4056         estimate D2E/DX2                !
 ! R14   R(7,8)                  1.3247         estimate D2E/DX2                !
 ! R15   R(8,9)                  1.4067         estimate D2E/DX2                !
 ! R16   R(8,20)                 1.378          estimate D2E/DX2                !
 ! R17   R(9,10)                 1.3883         estimate D2E/DX2                !
 ! R18   R(9,28)                 1.08           estimate D2E/DX2                !
 ! R19   R(10,11)                1.3782         estimate D2E/DX2                !
 ! R20   R(10,18)                1.407          estimate D2E/DX2                !
 ! R21   R(11,12)                1.3655         estimate D2E/DX2                !
 ! R22   R(11,20)                1.4008         estimate D2E/DX2                !
 ! R23   R(12,13)                1.3472         estimate D2E/DX2                !
 ! R24   R(12,29)                1.08           estimate D2E/DX2                !
 ! R25   R(13,14)                1.507          estimate D2E/DX2                !
 ! R26   R(13,15)                1.4114         estimate D2E/DX2                !
 ! R27   R(14,30)                1.0899         estimate D2E/DX2                !
 ! R28   R(14,31)                1.0901         estimate D2E/DX2                !
 ! R29   R(14,32)                1.09           estimate D2E/DX2                !
 ! R30   R(15,16)                1.3557         estimate D2E/DX2                !
 ! R31   R(15,18)                1.3679         estimate D2E/DX2                !
 ! R32   R(16,17)                1.429          estimate D2E/DX2                !
 ! R33   R(17,33)                1.0899         estimate D2E/DX2                !
 ! R34   R(17,34)                1.09           estimate D2E/DX2                !
 ! R35   R(17,35)                1.09           estimate D2E/DX2                !
 ! R36   R(18,19)                1.507          estimate D2E/DX2                !
 ! R37   R(19,36)                1.0899         estimate D2E/DX2                !
 ! R38   R(19,37)                1.09           estimate D2E/DX2                !
 ! R39   R(19,38)                1.0901         estimate D2E/DX2                !
 ! R40   R(20,21)                1.3866         estimate D2E/DX2                !
 ! R41   R(21,22)                1.3854         estimate D2E/DX2                !
 ! R42   R(22,39)                1.08           estimate D2E/DX2                !
 ! A1    A(2,1,23)             109.4692         estimate D2E/DX2                !
 ! A2    A(2,1,24)             109.4729         estimate D2E/DX2                !
 ! A3    A(2,1,25)             109.4758         estimate D2E/DX2                !
 ! A4    A(23,1,24)            109.4702         estimate D2E/DX2                !
 ! A5    A(23,1,25)            109.47           estimate D2E/DX2                !
 ! A6    A(24,1,25)            109.4692         estimate D2E/DX2                !
 ! A7    A(1,2,3)              117.0044         estimate D2E/DX2                !
 ! A8    A(2,3,4)              119.8308         estimate D2E/DX2                !
 ! A9    A(2,3,22)             119.8391         estimate D2E/DX2                !
 ! A10   A(4,3,22)             120.3296         estimate D2E/DX2                !
 ! A11   A(3,4,5)              120.4192         estimate D2E/DX2                !
 ! A12   A(3,4,26)             119.792          estimate D2E/DX2                !
 ! A13   A(5,4,26)             119.7887         estimate D2E/DX2                !
 ! A14   A(4,5,6)              119.8574         estimate D2E/DX2                !
 ! A15   A(4,5,27)             120.0755         estimate D2E/DX2                !
 ! A16   A(6,5,27)             120.0671         estimate D2E/DX2                !
 ! A17   A(5,6,7)              132.9956         estimate D2E/DX2                !
 ! A18   A(5,6,21)             119.5577         estimate D2E/DX2                !
 ! A19   A(7,6,21)             107.4466         estimate D2E/DX2                !
 ! A20   A(6,7,8)              109.6454         estimate D2E/DX2                !
 ! A21   A(7,8,9)              143.1439         estimate D2E/DX2                !
 ! A22   A(7,8,20)             109.252          estimate D2E/DX2                !
 ! A23   A(9,8,20)             107.6041         estimate D2E/DX2                !
 ! A24   A(8,9,10)             107.8711         estimate D2E/DX2                !
 ! A25   A(8,9,28)             126.065          estimate D2E/DX2                !
 ! A26   A(10,9,28)            126.0639         estimate D2E/DX2                !
 ! A27   A(9,10,11)            108.2273         estimate D2E/DX2                !
 ! A28   A(9,10,18)            131.9254         estimate D2E/DX2                !
 ! A29   A(11,10,18)           119.8473         estimate D2E/DX2                !
 ! A30   A(10,11,12)           120.2001         estimate D2E/DX2                !
 ! A31   A(10,11,20)           108.0824         estimate D2E/DX2                !
 ! A32   A(12,11,20)           131.7175         estimate D2E/DX2                !
 ! A33   A(11,12,13)           120.8562         estimate D2E/DX2                !
 ! A34   A(11,12,29)           119.5722         estimate D2E/DX2                !
 ! A35   A(13,12,29)           119.5716         estimate D2E/DX2                !
 ! A36   A(12,13,14)           119.8117         estimate D2E/DX2                !
 ! A37   A(12,13,15)           120.369          estimate D2E/DX2                !
 ! A38   A(14,13,15)           119.8193         estimate D2E/DX2                !
 ! A39   A(13,14,30)           109.475          estimate D2E/DX2                !
 ! A40   A(13,14,31)           109.4671         estimate D2E/DX2                !
 ! A41   A(13,14,32)           109.4712         estimate D2E/DX2                !
 ! A42   A(30,14,31)           109.4712         estimate D2E/DX2                !
 ! A43   A(30,14,32)           109.475          estimate D2E/DX2                !
 ! A44   A(31,14,32)           109.4678         estimate D2E/DX2                !
 ! A45   A(13,15,16)           120.2653         estimate D2E/DX2                !
 ! A46   A(13,15,18)           119.4745         estimate D2E/DX2                !
 ! A47   A(16,15,18)           120.2602         estimate D2E/DX2                !
 ! A48   A(15,16,17)           117.0006         estimate D2E/DX2                !
 ! A49   A(16,17,33)           109.4721         estimate D2E/DX2                !
 ! A50   A(16,17,34)           109.468          estimate D2E/DX2                !
 ! A51   A(16,17,35)           109.4711         estimate D2E/DX2                !
 ! A52   A(33,17,34)           109.4722         estimate D2E/DX2                !
 ! A53   A(33,17,35)           109.4742         estimate D2E/DX2                !
 ! A54   A(34,17,35)           109.4696         estimate D2E/DX2                !
 ! A55   A(10,18,15)           119.253          estimate D2E/DX2                !
 ! A56   A(10,18,19)           120.374          estimate D2E/DX2                !
 ! A57   A(15,18,19)           120.373          estimate D2E/DX2                !
 ! A58   A(18,19,36)           109.4758         estimate D2E/DX2                !
 ! A59   A(18,19,37)           109.4721         estimate D2E/DX2                !
 ! A60   A(18,19,38)           109.4674         estimate D2E/DX2                !
 ! A61   A(36,19,37)           109.479          estimate D2E/DX2                !
 ! A62   A(36,19,38)           109.4706         estimate D2E/DX2                !
 ! A63   A(37,19,38)           109.4624         estimate D2E/DX2                !
 ! A64   A(8,20,11)            108.2151         estimate D2E/DX2                !
 ! A65   A(8,20,21)            107.2738         estimate D2E/DX2                !
 ! A66   A(11,20,21)           144.5111         estimate D2E/DX2                !
 ! A67   A(6,21,20)            106.3822         estimate D2E/DX2                !
 ! A68   A(6,21,22)            119.9631         estimate D2E/DX2                !
 ! A69   A(20,21,22)           133.654          estimate D2E/DX2                !
 ! A70   A(3,22,21)            119.871          estimate D2E/DX2                !
 ! A71   A(3,22,39)            120.0635         estimate D2E/DX2                !
 ! A72   A(21,22,39)           120.0652         estimate D2E/DX2                !
 ! D1    D(23,1,2,3)            60.0047         estimate D2E/DX2                !
 ! D2    D(24,1,2,3)          -179.9967         estimate D2E/DX2                !
 ! D3    D(25,1,2,3)           -59.9953         estimate D2E/DX2                !
 ! D4    D(1,2,3,4)             -0.0072         estimate D2E/DX2                !
 ! D5    D(1,2,3,22)           179.7205         estimate D2E/DX2                !
 ! D6    D(2,3,4,5)            179.9992         estimate D2E/DX2                !
 ! D7    D(2,3,4,26)            -0.015          estimate D2E/DX2                !
 ! D8    D(22,3,4,5)             0.2728         estimate D2E/DX2                !
 ! D9    D(22,3,4,26)         -179.7414         estimate D2E/DX2                !
 ! D10   D(2,3,22,21)          179.7636         estimate D2E/DX2                !
 ! D11   D(2,3,22,39)           -0.0505         estimate D2E/DX2                !
 ! D12   D(4,3,22,21)           -0.51           estimate D2E/DX2                !
 ! D13   D(4,3,22,39)          179.6759         estimate D2E/DX2                !
 ! D14   D(3,4,5,6)             -0.0167         estimate D2E/DX2                !
 ! D15   D(3,4,5,27)           179.9534         estimate D2E/DX2                !
 ! D16   D(26,4,5,6)           179.9975         estimate D2E/DX2                !
 ! D17   D(26,4,5,27)           -0.0323         estimate D2E/DX2                !
 ! D18   D(4,5,6,7)           -179.981          estimate D2E/DX2                !
 ! D19   D(4,5,6,21)            -0.0008         estimate D2E/DX2                !
 ! D20   D(27,5,6,7)             0.0488         estimate D2E/DX2                !
 ! D21   D(27,5,6,21)         -179.971          estimate D2E/DX2                !
 ! D22   D(5,6,7,8)            179.975          estimate D2E/DX2                !
 ! D23   D(21,6,7,8)            -0.007          estimate D2E/DX2                !
 ! D24   D(5,6,21,20)         -179.9784         estimate D2E/DX2                !
 ! D25   D(5,6,21,22)           -0.2367         estimate D2E/DX2                !
 ! D26   D(7,6,21,20)            0.0065         estimate D2E/DX2                !
 ! D27   D(7,6,21,22)          179.7482         estimate D2E/DX2                !
 ! D28   D(6,7,8,9)           -179.9699         estimate D2E/DX2                !
 ! D29   D(6,7,8,20)             0.0047         estimate D2E/DX2                !
 ! D30   D(7,8,9,10)           179.9777         estimate D2E/DX2                !
 ! D31   D(7,8,9,28)            -0.0469         estimate D2E/DX2                !
 ! D32   D(20,8,9,10)            0.0029         estimate D2E/DX2                !
 ! D33   D(20,8,9,28)          179.9782         estimate D2E/DX2                !
 ! D34   D(7,8,20,11)         -179.9875         estimate D2E/DX2                !
 ! D35   D(7,8,20,21)           -0.0005         estimate D2E/DX2                !
 ! D36   D(9,8,20,11)           -0.0034         estimate D2E/DX2                !
 ! D37   D(9,8,20,21)          179.9836         estimate D2E/DX2                !
 ! D38   D(8,9,10,11)           -0.0012         estimate D2E/DX2                !
 ! D39   D(8,9,10,18)         -179.9965         estimate D2E/DX2                !
 ! D40   D(28,9,10,11)        -179.9765         estimate D2E/DX2                !
 ! D41   D(28,9,10,18)           0.0282         estimate D2E/DX2                !
 ! D42   D(9,10,11,12)        -179.9785         estimate D2E/DX2                !
 ! D43   D(9,10,11,20)          -0.001          estimate D2E/DX2                !
 ! D44   D(18,10,11,12)          0.0175         estimate D2E/DX2                !
 ! D45   D(18,10,11,20)        179.995          estimate D2E/DX2                !
 ! D46   D(9,10,18,15)         179.9615         estimate D2E/DX2                !
 ! D47   D(9,10,18,19)          -0.0442         estimate D2E/DX2                !
 ! D48   D(11,10,18,15)         -0.0334         estimate D2E/DX2                !
 ! D49   D(11,10,18,19)        179.9609         estimate D2E/DX2                !
 ! D50   D(10,11,12,13)          0.0224         estimate D2E/DX2                !
 ! D51   D(10,11,12,29)       -179.9959         estimate D2E/DX2                !
 ! D52   D(20,11,12,13)       -179.9489         estimate D2E/DX2                !
 ! D53   D(20,11,12,29)          0.0327         estimate D2E/DX2                !
 ! D54   D(10,11,20,8)           0.0028         estimate D2E/DX2                !
 ! D55   D(10,11,20,21)       -179.9759         estimate D2E/DX2                !
 ! D56   D(12,11,20,8)         179.9767         estimate D2E/DX2                !
 ! D57   D(12,11,20,21)         -0.0019         estimate D2E/DX2                !
 ! D58   D(11,12,13,14)        179.9784         estimate D2E/DX2                !
 ! D59   D(11,12,13,15)         -0.0458         estimate D2E/DX2                !
 ! D60   D(29,12,13,14)         -0.0032         estimate D2E/DX2                !
 ! D61   D(29,12,13,15)        179.9726         estimate D2E/DX2                !
 ! D62   D(12,13,14,30)          5.3718         estimate D2E/DX2                !
 ! D63   D(12,13,14,31)        125.3716         estimate D2E/DX2                !
 ! D64   D(12,13,14,32)       -114.6352         estimate D2E/DX2                !
 ! D65   D(15,13,14,30)       -174.6041         estimate D2E/DX2                !
 ! D66   D(15,13,14,31)        -54.6044         estimate D2E/DX2                !
 ! D67   D(15,13,14,32)         65.3889         estimate D2E/DX2                !
 ! D68   D(12,13,15,16)       -179.9787         estimate D2E/DX2                !
 ! D69   D(12,13,15,18)          0.0289         estimate D2E/DX2                !
 ! D70   D(14,13,15,16)         -0.0029         estimate D2E/DX2                !
 ! D71   D(14,13,15,18)       -179.9953         estimate D2E/DX2                !
 ! D72   D(13,15,16,17)        -67.5136         estimate D2E/DX2                !
 ! D73   D(18,15,16,17)        112.4786         estimate D2E/DX2                !
 ! D74   D(13,15,18,10)          0.0105         estimate D2E/DX2                !
 ! D75   D(13,15,18,19)       -179.9838         estimate D2E/DX2                !
 ! D76   D(16,15,18,10)       -179.9819         estimate D2E/DX2                !
 ! D77   D(16,15,18,19)          0.0238         estimate D2E/DX2                !
 ! D78   D(15,16,17,33)        -53.9638         estimate D2E/DX2                !
 ! D79   D(15,16,17,34)         66.0361         estimate D2E/DX2                !
 ! D80   D(15,16,17,35)       -173.9679         estimate D2E/DX2                !
 ! D81   D(10,18,19,36)        175.0051         estimate D2E/DX2                !
 ! D82   D(10,18,19,37)        -64.982          estimate D2E/DX2                !
 ! D83   D(10,18,19,38)         55.0054         estimate D2E/DX2                !
 ! D84   D(15,18,19,36)         -5.0006         estimate D2E/DX2                !
 ! D85   D(15,18,19,37)        115.0123         estimate D2E/DX2                !
 ! D86   D(15,18,19,38)       -125.0003         estimate D2E/DX2                !
 ! D87   D(8,20,21,6)           -0.0037         estimate D2E/DX2                !
 ! D88   D(8,20,21,22)        -179.6944         estimate D2E/DX2                !
 ! D89   D(11,20,21,6)         179.975          estimate D2E/DX2                !
 ! D90   D(11,20,21,22)          0.2843         estimate D2E/DX2                !
 ! D91   D(6,21,22,3)            0.4907         estimate D2E/DX2                !
 ! D92   D(6,21,22,39)        -179.6953         estimate D2E/DX2                !
 ! D93   D(20,21,22,3)        -179.8518         estimate D2E/DX2                !
 ! D94   D(20,21,22,39)         -0.0378         estimate D2E/DX2                !
 --------------------------------------------------------------------------------
 Trust Radius=3.00D-01 FncErr=1.00D-07 GrdErr=1.00D-06 EigMax=2.50D+02 EigMin=1.00D-04
 Number of steps in this run=    218 maximum allowed number of steps=    234.
 GradGradGradGradGradGradGradGradGradGradGradGradGradGradGradGradGradGrad

 Leave Link  103 at Mon Jun  9 12:37:46 2025, MaxMem=  5368709120 cpu:               0.3 elap:               0.0
 (Enter /opt/software/custom/apps/gaussian/x86_64-legacy/g16/l202.exe)
                          Input orientation:                          
 ---------------------------------------------------------------------
 Center     Atomic      Atomic             Coordinates (Angstroms)
 Number     Number       Type             X           Y           Z
 ---------------------------------------------------------------------
      1          6           0        6.027400   -1.948600   -0.045900
      2          8           0        4.602100   -2.039200    0.000200
      3          6           0        3.908000   -0.869800   -0.020300
      4          6           0        4.591500    0.339000   -0.083500
      5          6           0        3.900600    1.530700   -0.104900
      6          6           0        2.503200    1.525900   -0.063200
      7          7           0        1.573400    2.515000   -0.070700
      8          6           0        0.360100    1.986100   -0.016400
      9          6           0       -1.008600    2.309700    0.012000
     10          6           0       -1.725800    1.122700    0.074800
     11          7           0       -0.828300    0.076800    0.085600
     12          6           0       -1.276000   -1.211900    0.143700
     13          6           0       -2.594600   -1.483800    0.190800
     14          6           0       -3.062700   -2.914900    0.254000
     15          6           0       -3.540000   -0.435900    0.181800
     16          8           0       -4.866400   -0.711900    0.229700
     17          6           0       -5.435500   -1.361200   -0.909000
     18          6           0       -3.107300    0.860500    0.124200
     19          6           0       -4.099100    1.995100    0.113900
     20          7           0        0.464700    0.612800    0.029000
     21          6           0        1.815600    0.301600    0.000300
     22          6           0        2.523200   -0.889400    0.016200
     23          1           0        6.383400   -1.381700    0.814300
     24          1           0        6.456100   -2.950500   -0.023400
     25          1           0        6.330000   -1.444500   -0.963700
     26          1           0        5.671000    0.344000   -0.115800
     27          1           0        4.437300    2.466700   -0.153300
     28          1           0       -1.427200    3.305000   -0.010600
     29          1           0       -0.563800   -2.023700    0.151700
     30          1           0       -2.200800   -3.575300    0.348700
     31          1           0       -3.716900   -3.045400    1.116100
     32          1           0       -3.609200   -3.159000   -0.657000
     33          1           0       -5.205300   -0.787900   -1.806900
     34          1           0       -5.018600   -2.364100   -1.001400
     35          1           0       -6.516700   -1.427000   -0.787100
     36          1           0       -5.111000    1.592800    0.067800
     37          1           0       -3.984100    2.586500    1.022300
     38          1           0       -3.919300    2.626900   -0.756000
     39          1           0        1.996400   -1.831200    0.060000
 ---------------------------------------------------------------------
                    Distance matrix (angstroms):
                    1          2          3          4          5
     1  C    0.000000
     2  O    1.428920   0.000000
     3  C    2.378302   1.360034   0.000000
     4  C    2.701173   2.379696   1.390095   0.000000
     5  C    4.078270   3.639689   2.402002   1.377661   0.000000
     6  C    4.948983   4.137552   2.777532   2.402112   1.398030
     7  N    6.305748   5.469807   4.112149   3.720762   2.527029
     8  C    6.899350   5.847895   4.554533   4.541166   3.570765
     9  C    8.224462   7.098804   5.855187   5.937499   4.971997
    10  C    8.340238   7.074284   5.976521   6.367694   5.644035
    11  N    7.149836   5.828721   4.831129   5.428773   4.951021
    12  C    7.342910   5.937767   5.197863   6.073258   5.863518
    13  C    8.637763   7.220616   6.534934   7.418751   7.166748
    14  C    9.146234   7.718836   7.269686   8.323974   8.269203
    15  C    9.688924   8.300442   7.463365   8.172646   7.701444
    16  O   10.967236   9.563832   8.779381   9.521258   9.055468
    17  C   11.510346  10.101472   9.398524  10.203571   9.806754
    18  C    9.558385   8.237626   7.226981   7.719237   7.043601
    19  C   10.868501   9.591631   8.505252   8.849190   8.016155
    20  N    6.124542   4.914470   3.749246   4.137403   3.558915
    21  C    4.775436   3.639221   2.398070   2.777416   2.422598
    22  C    3.661308   2.375736   1.385420   2.407649   2.787253
    23  H    1.089980   2.065937   2.661992   2.641545   3.935899
    24  H    1.089997   2.065996   3.289701   3.781687   5.159300
    25  H    1.089973   2.066013   2.662023   2.641592   3.935904
    26  H    2.321190   2.614507   2.142568   1.079995   2.131359
    27  H    4.694127   4.511525   3.380840   2.134422   1.080040
    28  H    9.119902   8.056863   6.774467   6.710232   5.616270
    29  H    6.594589   5.168144   4.621479   5.675807   5.712309
    30  H    8.396734   6.982872   6.691288   7.851362   7.968944
    31  H    9.874442   8.453605   8.010227   9.051117   8.969829
    32  H    9.731525   8.313321   7.883788   8.934002   8.871031
    33  H   11.428994  10.050694   9.287135  10.010859   9.549352
    34  H   11.095032   9.678152   9.103828  10.025134   9.773705
    35  H   12.576800  11.163438  10.467704  11.269690  10.850508
    36  H   11.688387  10.370164   9.349573   9.784345   9.013469
    37  H   11.042568   9.806356   8.678610   8.933922   8.034537
    38  H   10.971613   9.744670   8.604347   8.838578   7.923157
    39  H    4.034099   2.614673   2.141250   3.385986   3.867239
                    6          7          8          9         10
     6  C    0.000000
     7  N    1.357536   0.000000
     8  C    2.192453   1.324681   0.000000
     9  C    3.598991   2.591469   1.406721   0.000000
    10  C    4.250418   3.583907   2.259371   1.388268   0.000000
    11  N    3.636059   3.425991   2.251250   2.241376   1.378234
    12  C    4.671264   4.696257   3.595784   3.534192   2.378534
    13  C    5.925401   5.781955   4.562169   4.115581   2.749929
    14  C    7.127451   7.147214   5.984018   5.619105   4.256951
    15  C    6.358376   5.909182   4.595231   3.738334   2.394161
    16  O    7.707434   7.209310   5.886941   4.905108   3.640483
    17  C    8.489622   8.053096   6.752046   5.824190   4.571597
    18  C    5.652927   4.968331   3.648233   2.552902   1.407029
    19  C    6.621320   5.699266   4.461112   3.108142   2.528866
    20  N    2.235561   2.203978   1.378026   2.247303   2.249530
    21  C    1.405609   2.227744   2.226275   3.465358   3.636106
    22  C    2.416687   3.535479   3.598411   4.765278   4.701700
    23  H    4.927484   6.253287   6.950704   8.301312   8.519273
    24  H    5.972031   7.329030   7.844188   9.131961   9.140246
    25  H    4.927329   6.253026   6.950259   8.300666   8.518504
    26  H    3.381510   4.637413   5.559859   6.964005   7.440118
    27  H    2.152665   2.865498   4.107710   5.450670   6.312065
    28  H    4.314627   3.103436   2.221255   1.079981   2.204289
    29  H    4.695991   5.021641   4.118294   4.358408   3.354995
    30  H    6.951224   7.177203   6.133570   6.013978   4.729889
    31  H    7.808788   7.766197   6.574228   6.101723   4.735171
    32  H    7.724139   7.706969   6.529760   6.092402   4.734520
    33  H    8.234994   7.737849   6.471062   5.524112   4.392961
    34  H    8.519964   8.253865   6.987480   6.241113   4.915131
    35  H    9.518521   9.027863   7.715803   6.703779   5.495140
    36  H    7.615621   6.749136   5.485865   4.164942   3.417693
    37  H    6.662450   5.664412   4.506823   3.154509   2.853136
    38  H    6.552914   5.536417   4.389863   3.026981   2.786447
    39  H    3.397373   4.368692   4.153925   5.116579   4.751896
                   11         12         13         14         15
    11  N    0.000000
    12  C    1.365488   0.000000
    13  C    2.359312   1.347165   0.000000
    14  C    3.737803   2.470763   1.507037   0.000000
    15  C    2.761419   2.393601   1.411367   2.525563   0.000000
    16  O    4.116924   3.626068   2.399670   2.847303   1.355658
    17  C    4.927815   4.293240   3.048820   3.065409   2.374646
    18  C    2.410294   2.765661   2.400633   3.777894   1.367918
    19  C    3.791940   4.272661   3.791066   5.020145   2.495389
    20  N    1.400839   2.524425   3.712308   4.993780   4.142553
    21  C    2.654810   3.445176   4.761702   5.848765   5.409187
    22  C    3.488683   3.814995   5.155160   5.946552   6.082391
    23  H    7.393703   7.690575   9.000203   9.586107   9.988416
    24  H    7.889164   7.926918   9.171274   9.522908  10.309575
    25  H    7.393013   7.689712   8.999050   9.584763   9.987309
    26  H    6.507907   7.123831   8.470832   9.329239   9.248748
    27  H    5.787507   6.801625   8.072947   9.239995   8.495569
    28  H    3.284693   4.522063   4.933152   6.436772   4.300613
    29  H    2.118119   1.079959   2.101706   2.655034   3.373393
    30  H    3.910347   2.546162   2.134100   1.089939   3.417184
    31  H    4.376537   3.203947   2.134088   1.090057   2.777355
    32  H    4.330734   3.142633   2.134121   1.090031   2.850201
    33  H    4.846379   4.407268   3.360184   3.655431   2.617643
    34  H    4.969726   4.079935   2.841134   2.388505   2.702624
    35  H    5.948186   5.327062   4.042571   3.902288   3.283564
    36  H    4.543137   4.751771   3.976539   4.954752   2.568397
    37  H    4.139453   4.746955   4.380576   5.630690   3.168370
    38  H    4.094580   4.746881   4.421438   5.697843   3.225536
    39  H    3.408819   3.331537   4.605983   5.177503   5.710816
                   16         17         18         19         20
    16  O    0.000000
    17  C    1.429022   0.000000
    18  C    2.361780   3.379936   0.000000
    19  C    2.816027   3.754602   1.507014   0.000000
    20  N    5.496884   6.291969   3.581843   4.769301   0.000000
    21  C    6.762317   7.494677   4.956074   6.153416   1.386579
    22  C    7.394814   8.026176   5.897147   7.223901   2.548370
    23  H   11.284874  11.943893   9.776353  11.035223   6.294898
    24  H   11.544453  12.029976  10.295831  11.657189   6.971135
    25  H   11.283629  11.765922   9.775438  11.034410   6.294417
    26  H   10.595805  11.264600   8.796756   9.911294   5.215245
    27  H    9.839158  10.615841   7.718670   8.553591   4.387679
    28  H    5.293517   6.216672   2.969257   2.978320   3.290713
    29  H    4.498808   5.029657   3.845615   5.352619   2.832667
    30  H    3.913904   4.116714   4.533041   5.889654   4.974664
    31  H    2.748141   3.145019   4.075725   5.153360   5.661271
    32  H    2.890517   2.575065   4.125355   5.234409   5.594080
    33  H    2.066003   1.089903   3.293626   3.557842   6.122205
    34  H    2.066044   1.090024   3.913833   4.592603   6.323783
    35  H    2.066093   1.090038   4.205607   4.285716   7.318931
    36  H    2.323291   3.128187   2.134071   1.089914   5.661302
    37  H    3.505155   4.628263   2.134113   1.090032   4.967289
    38  H    3.607795   4.269334   2.134072   1.090057   4.887973
    39  H    6.955548   7.509527   5.770366   7.197124   2.884476
                   21         22         23         24         25
    21  C    0.000000
    22  C    1.385436   0.000000
    23  H    4.935675   3.972464   0.000000
    24  H    5.666653   4.440428   1.779933   0.000000
    25  H    4.935379   3.969895   1.779910   1.779916   0.000000
    26  H    3.857381   3.383392   2.085819   3.388016   2.086132
    27  H    3.403610   3.867288   4.419699   5.782602   4.420017
    28  H    4.419987   5.761889   9.146097  10.063690   9.145507
    29  H    3.330388   3.291590   7.008195   7.082981   7.007430
    30  H    5.593139   5.444336   8.872269   8.687390   8.890290
    31  H    6.561705   6.693053  10.240852  10.237060  10.384057
    32  H    6.468095   6.573478  10.255514  10.087378  10.090653
    33  H    7.331168   7.941266  11.896271  11.993580  11.584699
    34  H    7.403759   7.751709  11.587385  11.531222  11.385860
    35  H    8.546068   9.091430  12.999197  13.084259  12.847926
    36  H    7.046243   8.027764  11.896476  12.427699  11.882157
    37  H    6.316785   7.445742  11.102924  11.863795  11.250503
    38  H    6.234428   7.380140  11.166035  11.802246  11.030303
    39  H    2.141282   1.080011   4.474012   4.598773   4.469629
                   26         27         28         29         30
    26  H    0.000000
    27  H    2.455459   0.000000
    28  H    7.691751   5.925831   0.000000
    29  H    6.674600   6.728129   5.400634   0.000000
    30  H    8.805788   8.990113   6.932971   2.264076   0.000000
    31  H   10.056753   9.923991   6.843958   3.451953   1.779960
    32  H    9.934084   9.830991   6.852901   3.349233   1.779980
    33  H   11.065031  10.310507   5.852569   5.187180   4.630684
    34  H   11.062804  10.652227   6.783696   4.614191   3.351085
    35  H   12.333982  11.642711   6.992695   6.055940   4.953002
    36  H   10.855631   9.590757   4.063023   5.810606   5.937796
    37  H    9.977226   8.503903   2.849713   5.806061   6.449936
    38  H    9.879036   8.379837   2.688123   5.806150   6.529999
    39  H    4.273767   4.947265   6.173052   2.569064   4.554308
                   31         32         33         34         35
    31  H    0.000000
    32  H    1.779997   0.000000
    33  H    3.981905   3.080896   0.000000
    34  H    2.577285   1.654354   1.779914   0.000000
    35  H    3.752368   3.386784   1.779947   1.779996   0.000000
    36  H    4.955335   5.035905   3.031687   4.099852   3.438901
    37  H    5.639015   5.997614   4.569713   5.447384   5.078993
    38  H    5.976681   5.795050   3.797242   5.116519   4.814723
    39  H    5.935607   5.805161   7.512541   7.114828   8.564685
                   36         37         38         39
    36  H    0.000000
    37  H    1.780004   0.000000
    38  H    1.779932   1.779939   0.000000
    39  H    7.889168   7.497231   7.452249   0.000000
 Stoichiometry    C17H17N3O2
 Framework group  C1[X(C17H17N3O2)]
 Deg. of freedom   111
 Full point group                 C1      NOp   1
 Largest Abelian subgroup         C1      NOp   1
 Largest concise Abelian subgroup C1      NOp   1
                         Standard orientation:                         
 ---------------------------------------------------------------------
 Center     Atomic      Atomic             Coordinates (Angstroms)
 Number     Number       Type             X           Y           Z
 ---------------------------------------------------------------------
      1          6           0        6.062010    1.904082    0.052242
      2          8           0        4.637018    1.996726    0.000958
      3          6           0        3.941045    0.828462    0.022697
      4          6           0        4.622455   -0.381183    0.091997
      5          6           0        3.929644   -1.571749    0.114716
      6          6           0        2.532405   -1.564934    0.068194
      7          7           0        1.601057   -2.552577    0.075563
      8          6           0        0.388770   -2.021987    0.015449
      9          6           0       -0.980323   -2.343572   -0.016656
     10          6           0       -1.695468   -1.155674   -0.085605
     11          7           0       -0.796320   -0.111191   -0.096561
     12          6           0       -1.241826    1.178008   -0.160197
     13          6           0       -2.559834    1.451784   -0.212677
     14          6           0       -3.025502    2.883397   -0.281925
     15          6           0       -3.506878    0.405369   -0.203679
     16          8           0       -4.832678    0.683255   -0.256998
     17          6           0       -5.404682    1.336962    0.877718
     18          6           0       -3.076383   -0.891508   -0.140570
     19          6           0       -4.069965   -2.024547   -0.130164
     20          7           0        0.495648   -0.648997   -0.033850
     21          6           0        1.846920   -0.339783   -0.001468
     22          6           0        2.556411    0.850074   -0.018628
     23          1           0        6.420086    1.333967   -0.804965
     24          1           0        6.492332    2.905248    0.028110
     25          1           0        6.360675    1.402372    0.972637
     26          1           0        5.701829   -0.387740    0.128026
     27          1           0        4.464728   -2.508417    0.167865
     28          1           0       -1.400536   -3.338154    0.007591
     29          1           0       -0.528349    1.988685   -0.168265
     30          1           0       -2.162262    3.542176   -0.375707
     31          1           0       -3.676534    3.012222   -1.146672
     32          1           0       -3.574751    3.131165    0.626427
     33          1           0       -5.178455    0.766102    1.778178
     34          1           0       -4.986553    2.339503    0.968440
     35          1           0       -6.485354    1.404042    0.751895
     36          1           0       -5.081394   -1.620553   -0.088793
     37          1           0       -3.952759   -2.618943   -1.036324
     38          1           0       -3.894131   -2.653917    0.742305
     39          1           0        2.031221    1.792541   -0.067161
 ---------------------------------------------------------------------
 Rotational constants (GHZ):           0.6625220           0.1449549           0.1202663
 Leave Link  202 at Mon Jun  9 12:37:46 2025, MaxMem=  5368709120 cpu:               0.2 elap:               0.0
 (Enter /opt/software/custom/apps/gaussian/x86_64-legacy/g16/l301.exe)
 Standard basis: 6-31G(d) (6D, 7F)
 Ernie: Thresh=  0.10000D-02 Tol=  0.10000D-05 Strict=F.
 There are   364 symmetry adapted cartesian basis functions of A   symmetry.
 There are   364 symmetry adapted basis functions of A   symmetry.
   364 basis functions,   684 primitive gaussians,   364 cartesian basis functions
    78 alpha electrons       78 beta electrons
       nuclear repulsion energy      1731.1033324130 Hartrees.
 IExCor= 4336 DFT=T Ex+Corr=M062X ExCW=0 ScaHFX=  0.540000
 ScaDFX=  1.000000  1.000000  1.000000  1.000000 ScalE2=  1.000000  1.000000
 IRadAn=      5 IRanWt=     -1 IRanGd=            0 ICorTp=0 IEmpDi=  4
 NAtoms=   39 NActive=   39 NUniq=   39 SFac= 1.00D+00 NAtFMM=   60 NAOKFM=F Big=F
 Integral buffers will be    131072 words long.
 Raffenetti 2 integral format.
 Two-electron integral symmetry is turned on.
 Leave Link  301 at Mon Jun  9 12:37:46 2025, MaxMem=  5368709120 cpu:               1.1 elap:               0.1
 (Enter /opt/software/custom/apps/gaussian/x86_64-legacy/g16/l302.exe)
 NPDir=0 NMtPBC=     1 NCelOv=     1 NCel=       1 NClECP=     1 NCelD=      1
         NCelK=      1 NCelE2=     1 NClLst=     1 CellRange=     0.0.
 One-electron integrals computed using PRISM.
 One-electron integral symmetry used in STVInt
 NBasis=   364 RedAO= T EigKep=  3.15D-04  NBF=   364
 NBsUse=   364 1.00D-06 EigRej= -1.00D+00 NBFU=   364
 Precomputing XC quadrature grid using
 IXCGrd= 4 IRadAn=           5 IRanWt=          -1 IRanGd=           0 AccXCQ= 0.00D+00.
 Generated NRdTot=       0 NPtTot=           0 NUsed=           0 NTot=          32
 NSgBfM=   361   361   361   361   361 MxSgAt=    39 MxSgA2=    39.
 Leave Link  302 at Mon Jun  9 12:37:46 2025, MaxMem=  5368709120 cpu:               6.8 elap:               0.4
 (Enter /opt/software/custom/apps/gaussian/x86_64-legacy/g16/l303.exe)
 DipDrv:  MaxL=1.
 Leave Link  303 at Mon Jun  9 12:37:46 2025, MaxMem=  5368709120 cpu:               0.8 elap:               0.1
 (Enter /opt/software/custom/apps/gaussian/x86_64-legacy/g16/l401.exe)
 ExpMin= 1.61D-01 ExpMax= 5.48D+03 ExpMxC= 8.25D+02 IAcc=3 IRadAn=         5 AccDes= 0.00D+00
 Harris functional with IExCor= 1009 and IRadAn=       5 diagonalized for initial guess.
 HarFok:  IExCor= 1009 AccDes= 0.00D+00 IRadAn=         5 IDoV= 1 UseB2=F ITyADJ=14
 ICtDFT=  3500011 ScaDFX=  1.000000  1.000000  1.000000  1.000000
 FoFCou: FMM=F IPFlag=           0 FMFlag=      100000 FMFlg1=           0
         NFxFlg=           0 DoJE=T BraDBF=F KetDBF=T FulRan=T
         wScrn=  0.000000 ICntrl=       500 IOpCl=  0 I1Cent=   200000004 NGrid=           0
         NMat0=    1 NMatS0=      1 NMatT0=    0 NMatD0=    1 NMtDS0=    0 NMtDT0=    0
 Petite list used in FoFCou.
 Harris En= -971.797965496475    
 JPrj=0 DoOrth=F DoCkMO=F.
 Leave Link  401 at Mon Jun  9 12:37:47 2025, MaxMem=  5368709120 cpu:              24.2 elap:               1.3
 (Enter /opt/software/custom/apps/gaussian/x86_64-legacy/g16/l502.exe)
 Integral symmetry usage will be decided dynamically.
 Closed shell SCF:
 Using DIIS extrapolation, IDIIS=  1040.
 NGot=  5368709120 LenX=  5368432803 LenY=  5368299866
 Requested convergence on RMS density matrix=1.00D-08 within 128 cycles.
 Requested convergence on MAX density matrix=1.00D-06.
 Requested convergence on             energy=1.00D-06.
 No special actions if energy rises.
 Fock matrices will be formed incrementally for  20 cycles.
 Integral accuracy reduced to 1.0D-05 until final iterations.

 Cycle   1  Pass 0  IDiag  1:
 FoFJK:  IHMeth= 1 ICntrl=       0 DoSepK=F KAlg= 0 I1Cent=           0 FoldK=F
 IRaf= 710000000 NMat=       1 IRICut=       1 DoRegI=T DoRafI=F ISym2E= 0 IDoP0=0 IntGTp=1.
 FoFCou: FMM=F IPFlag=           0 FMFlag=      100000 FMFlg1=           0
         NFxFlg=           0 DoJE=F BraDBF=F KetDBF=F FulRan=T
         wScrn=  0.000000 ICntrl=         0 IOpCl=  0 I1Cent=           0 NGrid=           0
         NMat0=    1 NMatS0=      1 NMatT0=    0 NMatD0=    1 NMtDS0=    0 NMtDT0=    0
 Symmetry not used in FoFCou.
 E= -971.694403185115    
 DIIS: error= 2.53D-02 at cycle   1 NSaved=   1.
 NSaved= 1 IEnMin= 1 EnMin= -971.694403185115     IErMin= 1 ErrMin= 2.53D-02
 ErrMax= 2.53D-02  0.00D+00 EMaxC= 1.00D-01 BMatC= 6.22D-01 BMatP= 6.22D-01
 IDIUse=3 WtCom= 7.47D-01 WtEn= 2.53D-01
 Coeff-Com:  0.100D+01
 Coeff-En:   0.100D+01
 Coeff:      0.100D+01
 Gap=     0.197 Goal=   None    Shift=    0.000
 GapD=    0.197 DampG=1.000 DampE=0.500 DampFc=0.5000 IDamp=-1.
 Damping current iteration by 5.00D-01
 RMSDP=4.94D-03 MaxDP=2.12D-01              OVMax= 3.60D-01

 Cycle   2  Pass 0  IDiag  1:
 RMSU=  2.44D-03    CP:  9.79D-01
 E= -971.933201527191     Delta-E=       -0.238798342076 Rises=F Damp=T
 DIIS: error= 1.17D-02 at cycle   2 NSaved=   2.
 NSaved= 2 IEnMin= 2 EnMin= -971.933201527191     IErMin= 2 ErrMin= 1.17D-02
 ErrMax= 1.17D-02  0.00D+00 EMaxC= 1.00D-01 BMatC= 7.77D-02 BMatP= 6.22D-01
 IDIUse=3 WtCom= 8.83D-01 WtEn= 1.17D-01
 Coeff-Com:  0.412D-01 0.959D+00
 Coeff-En:   0.986D-01 0.901D+00
 Coeff:      0.479D-01 0.952D+00
 Gap=     0.401 Goal=   None    Shift=    0.000
 RMSDP=1.67D-03 MaxDP=1.07D-01 DE=-2.39D-01 OVMax= 3.20D-01

 Cycle   3  Pass 0  IDiag  1:
 RMSU=  1.59D-03    CP:  9.63D-01  8.24D-01
 E= -972.198305232556     Delta-E=       -0.265103705365 Rises=F Damp=F
 DIIS: error= 1.08D-02 at cycle   3 NSaved=   3.
 NSaved= 3 IEnMin= 3 EnMin= -972.198305232556     IErMin= 3 ErrMin= 1.08D-02
 ErrMax= 1.08D-02  0.00D+00 EMaxC= 1.00D-01 BMatC= 6.13D-02 BMatP= 7.77D-02
 IDIUse=3 WtCom= 8.92D-01 WtEn= 1.08D-01
 Coeff-Com: -0.779D-01 0.501D+00 0.577D+00
 Coeff-En:   0.000D+00 0.000D+00 0.100D+01
 Coeff:     -0.695D-01 0.447D+00 0.622D+00
 Gap=     0.191 Goal=   None    Shift=    0.000
 RMSDP=9.80D-04 MaxDP=5.81D-02 DE=-2.65D-01 OVMax= 9.72D-02

 Cycle   4  Pass 0  IDiag  1:
 RMSU=  5.28D-04    CP:  9.66D-01  1.04D+00  6.07D-01
 E= -972.249961373392     Delta-E=       -0.051656140837 Rises=F Damp=F
 DIIS: error= 3.56D-03 at cycle   4 NSaved=   4.
 NSaved= 4 IEnMin= 4 EnMin= -972.249961373392     IErMin= 4 ErrMin= 3.56D-03
 ErrMax= 3.56D-03  0.00D+00 EMaxC= 1.00D-01 BMatC= 7.87D-03 BMatP= 6.13D-02
 IDIUse=3 WtCom= 9.64D-01 WtEn= 3.56D-02
 Coeff-Com: -0.154D-01 0.581D-01 0.287D+00 0.670D+00
 Coeff-En:   0.000D+00 0.000D+00 0.958D-01 0.904D+00
 Coeff:     -0.148D-01 0.560D-01 0.280D+00 0.679D+00
 Gap=     0.194 Goal=   None    Shift=    0.000
 RMSDP=3.16D-04 MaxDP=1.68D-02 DE=-5.17D-02 OVMax= 2.40D-02

 Cycle   5  Pass 0  IDiag  1:
 RMSU=  1.42D-04    CP:  9.65D-01  9.77D-01  7.23D-01  7.37D-01
 E= -972.257139821152     Delta-E=       -0.007178447760 Rises=F Damp=F
 DIIS: error= 5.83D-04 at cycle   5 NSaved=   5.
 NSaved= 5 IEnMin= 5 EnMin= -972.257139821152     IErMin= 5 ErrMin= 5.83D-04
 ErrMax= 5.83D-04  0.00D+00 EMaxC= 1.00D-01 BMatC= 3.91D-04 BMatP= 7.87D-03
 IDIUse=3 WtCom= 9.94D-01 WtEn= 5.83D-03
 Coeff-Com: -0.243D-02 0.182D-02 0.106D+00 0.331D+00 0.564D+00
 Coeff-En:   0.000D+00 0.000D+00 0.000D+00 0.000D+00 0.100D+01
 Coeff:     -0.242D-02 0.181D-02 0.106D+00 0.329D+00 0.566D+00
 Gap=     0.195 Goal=   None    Shift=    0.000
 RMSDP=7.72D-05 MaxDP=4.34D-03 DE=-7.18D-03 OVMax= 6.63D-03

 Cycle   6  Pass 0  IDiag  1:
 RMSU=  4.97D-05    CP:  9.65D-01  9.83D-01  7.23D-01  7.71D-01  6.20D-01
 E= -972.257517238221     Delta-E=       -0.000377417069 Rises=F Damp=F
 DIIS: error= 1.68D-04 at cycle   6 NSaved=   6.
 NSaved= 6 IEnMin= 6 EnMin= -972.257517238221     IErMin= 6 ErrMin= 1.68D-04
 ErrMax= 1.68D-04  0.00D+00 EMaxC= 1.00D-01 BMatC= 2.26D-05 BMatP= 3.91D-04
 IDIUse=3 WtCom= 9.98D-01 WtEn= 1.68D-03
 Coeff-Com:  0.147D-02-0.614D-02 0.840D-02 0.427D-01 0.207D+00 0.746D+00
 Coeff-En:   0.000D+00 0.000D+00 0.000D+00 0.000D+00 0.000D+00 0.100D+01
 Coeff:      0.147D-02-0.613D-02 0.838D-02 0.426D-01 0.207D+00 0.747D+00
 Gap=     0.195 Goal=   None    Shift=    0.000
 RMSDP=2.19D-05 MaxDP=8.77D-04 DE=-3.77D-04 OVMax= 2.19D-03

 Cycle   7  Pass 0  IDiag  1:
 RMSU=  1.44D-05    CP:  9.65D-01  9.81D-01  7.27D-01  7.78D-01  7.20D-01
                    CP:  9.33D-01
 E= -972.257543195746     Delta-E=       -0.000025957525 Rises=F Damp=F
 DIIS: error= 6.46D-05 at cycle   7 NSaved=   7.
 NSaved= 7 IEnMin= 7 EnMin= -972.257543195746     IErMin= 7 ErrMin= 6.46D-05
 ErrMax= 6.46D-05  0.00D+00 EMaxC= 1.00D-01 BMatC= 3.82D-06 BMatP= 2.26D-05
 IDIUse=1 WtCom= 1.00D+00 WtEn= 0.00D+00
 Coeff-Com:  0.117D-02-0.345D-02-0.692D-02-0.173D-01 0.321D-01 0.332D+00
 Coeff-Com:  0.662D+00
 Coeff:      0.117D-02-0.345D-02-0.692D-02-0.173D-01 0.321D-01 0.332D+00
 Coeff:      0.662D+00
 Gap=     0.196 Goal=   None    Shift=    0.000
 RMSDP=8.46D-06 MaxDP=3.33D-04 DE=-2.60D-05 OVMax= 8.94D-04

 Initial convergence to 1.0D-05 achieved.  Increase integral accuracy.
 Cycle   8  Pass 1  IDiag  1:
 E= -972.257632622590     Delta-E=       -0.000089426844 Rises=F Damp=F
 DIIS: error= 6.57D-05 at cycle   1 NSaved=   1.
 NSaved= 1 IEnMin= 1 EnMin= -972.257632622590     IErMin= 1 ErrMin= 6.57D-05
 ErrMax= 6.57D-05  0.00D+00 EMaxC= 1.00D-01 BMatC= 1.55D-06 BMatP= 1.55D-06
 IDIUse=1 WtCom= 1.00D+00 WtEn= 0.00D+00
 Coeff-Com:  0.100D+01
 Coeff:      0.100D+01
 Gap=     0.196 Goal=   None    Shift=    0.000
 RMSDP=8.46D-06 MaxDP=3.33D-04 DE=-8.94D-05 OVMax= 5.57D-04

 Cycle   9  Pass 1  IDiag  1:
 RMSU=  4.26D-05    CP:  1.00D+00
 E= -972.257633880012     Delta-E=       -0.000001257421 Rises=F Damp=F
 DIIS: error= 3.71D-05 at cycle   2 NSaved=   2.
 NSaved= 2 IEnMin= 2 EnMin= -972.257633880012     IErMin= 2 ErrMin= 3.71D-05
 ErrMax= 3.71D-05  0.00D+00 EMaxC= 1.00D-01 BMatC= 6.26D-07 BMatP= 1.55D-06
 IDIUse=1 WtCom= 1.00D+00 WtEn= 0.00D+00
 Coeff-Com:  0.342D+00 0.658D+00
 Coeff:      0.342D+00 0.658D+00
 Gap=     0.196 Goal=   None    Shift=    0.000
 RMSDP=4.01D-06 MaxDP=1.48D-04 DE=-1.26D-06 OVMax= 4.10D-04

 Cycle  10  Pass 1  IDiag  1:
 RMSU=  3.97D-06    CP:  1.00D+00  1.01D+00
 E= -972.257634310240     Delta-E=       -0.000000430229 Rises=F Damp=F
 DIIS: error= 2.36D-05 at cycle   3 NSaved=   3.
 NSaved= 3 IEnMin= 3 EnMin= -972.257634310240     IErMin= 3 ErrMin= 2.36D-05
 ErrMax= 2.36D-05  0.00D+00 EMaxC= 1.00D-01 BMatC= 2.95D-07 BMatP= 6.26D-07
 IDIUse=1 WtCom= 1.00D+00 WtEn= 0.00D+00
 Coeff-Com: -0.167D-01 0.403D+00 0.614D+00
 Coeff:     -0.167D-01 0.403D+00 0.614D+00
 Gap=     0.196 Goal=   None    Shift=    0.000
 RMSDP=1.93D-06 MaxDP=1.05D-04 DE=-4.30D-07 OVMax= 1.43D-04

 Cycle  11  Pass 1  IDiag  1:
 RMSU=  1.24D-06    CP:  1.00D+00  1.03D+00  6.81D-01
 E= -972.257634610113     Delta-E=       -0.000000299872 Rises=F Damp=F
 DIIS: error= 5.93D-06 at cycle   4 NSaved=   4.
 NSaved= 4 IEnMin= 4 EnMin= -972.257634610113     IErMin= 4 ErrMin= 5.93D-06
 ErrMax= 5.93D-06  0.00D+00 EMaxC= 1.00D-01 BMatC= 1.07D-08 BMatP= 2.95D-07
 IDIUse=1 WtCom= 1.00D+00 WtEn= 0.00D+00
 Coeff-Com: -0.219D-01 0.152D+00 0.254D+00 0.616D+00
 Coeff:     -0.219D-01 0.152D+00 0.254D+00 0.616D+00
 Gap=     0.196 Goal=   None    Shift=    0.000
 RMSDP=5.45D-07 MaxDP=2.93D-05 DE=-3.00D-07 OVMax= 7.27D-05

 Cycle  12  Pass 1  IDiag  1:
 RMSU=  5.33D-07    CP:  1.00D+00  1.03D+00  7.07D-01  1.01D+00
 E= -972.257634627708     Delta-E=       -0.000000017596 Rises=F Damp=F
 DIIS: error= 2.22D-06 at cycle   5 NSaved=   5.
 NSaved= 5 IEnMin= 5 EnMin= -972.257634627708     IErMin= 5 ErrMin= 2.22D-06
 ErrMax= 2.22D-06  0.00D+00 EMaxC= 1.00D-01 BMatC= 3.06D-09 BMatP= 1.07D-08
 IDIUse=1 WtCom= 1.00D+00 WtEn= 0.00D+00
 Coeff-Com: -0.137D-02-0.812D-01-0.142D+00 0.239D+00 0.985D+00
 Coeff:     -0.137D-02-0.812D-01-0.142D+00 0.239D+00 0.985D+00
 Gap=     0.196 Goal=   None    Shift=    0.000
 RMSDP=4.49D-07 MaxDP=1.73D-05 DE=-1.76D-08 OVMax= 5.76D-05

 Cycle  13  Pass 1  IDiag  1:
 RMSU=  2.01D-07    CP:  1.00D+00  1.03D+00  7.19D-01  1.32D+00  1.18D+00
 E= -972.257634635142     Delta-E=       -0.000000007434 Rises=F Damp=F
 DIIS: error= 8.89D-07 at cycle   6 NSaved=   6.
 NSaved= 6 IEnMin= 6 EnMin= -972.257634635142     IErMin= 6 ErrMin= 8.89D-07
 ErrMax= 8.89D-07  0.00D+00 EMaxC= 1.00D-01 BMatC= 5.12D-10 BMatP= 3.06D-09
 IDIUse=1 WtCom= 1.00D+00 WtEn= 0.00D+00
 Coeff-Com:  0.310D-02-0.661D-01-0.117D+00 0.391D-01 0.508D+00 0.633D+00
 Coeff:      0.310D-02-0.661D-01-0.117D+00 0.391D-01 0.508D+00 0.633D+00
 Gap=     0.196 Goal=   None    Shift=    0.000
 RMSDP=1.38D-07 MaxDP=6.29D-06 DE=-7.43D-09 OVMax= 2.55D-05

 Cycle  14  Pass 1  IDiag  1:
 RMSU=  7.26D-08    CP:  1.00D+00  1.03D+00  7.22D-01  1.39D+00  1.32D+00
                    CP:  8.53D-01
 E= -972.257634636112     Delta-E=       -0.000000000970 Rises=F Damp=F
 DIIS: error= 2.81D-07 at cycle   7 NSaved=   7.
 NSaved= 7 IEnMin= 7 EnMin= -972.257634636112     IErMin= 7 ErrMin= 2.81D-07
 ErrMax= 2.81D-07  0.00D+00 EMaxC= 1.00D-01 BMatC= 4.32D-11 BMatP= 5.12D-10
 IDIUse=1 WtCom= 1.00D+00 WtEn= 0.00D+00
 Coeff-Com:  0.142D-02-0.215D-01-0.388D-01-0.433D-02 0.121D+00 0.277D+00
 Coeff-Com:  0.665D+00
 Coeff:      0.142D-02-0.215D-01-0.388D-01-0.433D-02 0.121D+00 0.277D+00
 Coeff:      0.665D+00
 Gap=     0.196 Goal=   None    Shift=    0.000
 RMSDP=3.30D-08 MaxDP=1.09D-06 DE=-9.70D-10 OVMax= 3.99D-06

 Cycle  15  Pass 1  IDiag  1:
 RMSU=  1.96D-08    CP:  1.00D+00  1.03D+00  7.23D-01  1.40D+00  1.34D+00
                    CP:  9.35D-01  9.96D-01
 E= -972.257634636100     Delta-E=        0.000000000013 Rises=F Damp=F
 DIIS: error= 6.64D-08 at cycle   8 NSaved=   8.
 NSaved= 8 IEnMin= 7 EnMin= -972.257634636112     IErMin= 8 ErrMin= 6.64D-08
 ErrMax= 6.64D-08  0.00D+00 EMaxC= 1.00D-01 BMatC= 3.74D-12 BMatP= 4.32D-11
 IDIUse=1 WtCom= 1.00D+00 WtEn= 0.00D+00
 Coeff-Com: -0.123D-03 0.565D-02 0.944D-02-0.704D-02-0.553D-01-0.128D-01
 Coeff-Com:  0.192D+00 0.868D+00
 Coeff:     -0.123D-03 0.565D-02 0.944D-02-0.704D-02-0.553D-01-0.128D-01
 Coeff:      0.192D+00 0.868D+00
 Gap=     0.196 Goal=   None    Shift=    0.000
 RMSDP=1.38D-08 MaxDP=5.00D-07 DE= 1.27D-11 OVMax= 2.48D-06

 Cycle  16  Pass 1  IDiag  1:
 RMSU=  8.47D-09    CP:  1.00D+00  1.03D+00  7.23D-01  1.41D+00  1.34D+00
                    CP:  9.58D-01  1.11D+00  1.03D+00
 E= -972.257634636121     Delta-E=       -0.000000000021 Rises=F Damp=F
 DIIS: error= 5.28D-08 at cycle   9 NSaved=   9.
 NSaved= 9 IEnMin= 9 EnMin= -972.257634636121     IErMin= 9 ErrMin= 5.28D-08
 ErrMax= 5.28D-08  0.00D+00 EMaxC= 1.00D-01 BMatC= 8.22D-13 BMatP= 3.74D-12
 IDIUse=1 WtCom= 1.00D+00 WtEn= 0.00D+00
 Coeff-Com: -0.210D-03 0.464D-02 0.807D-02-0.278D-02-0.368D-01-0.334D-01
 Coeff-Com: -0.901D-02 0.371D+00 0.698D+00
 Coeff:     -0.210D-03 0.464D-02 0.807D-02-0.278D-02-0.368D-01-0.334D-01
 Coeff:     -0.901D-02 0.371D+00 0.698D+00
 Gap=     0.196 Goal=   None    Shift=    0.000
 RMSDP=4.90D-09 MaxDP=2.47D-07 DE=-2.14D-11 OVMax= 6.86D-07

 SCF Done:  E(RM062X) =  -972.257634636     A.U. after   16 cycles
            NFock= 16  Conv=0.49D-08     -V/T= 2.0080
 KE= 9.645853191580D+02 PE=-5.721542831123D+03 EE= 2.053596544916D+03
 Leave Link  502 at Mon Jun  9 12:38:39 2025, MaxMem=  5368709120 cpu:            1015.9 elap:              51.1
 (Enter /opt/software/custom/apps/gaussian/x86_64-legacy/g16/l601.exe)
 Copying SCF densities to generalized density rwf, IOpCl= 0 IROHF=0.

 **********************************************************************

            Population analysis using the SCF Density.

 **********************************************************************

 Orbital symmetries:
       Occupied  (A) (A) (A) (A) (A) (A) (A) (A) (A) (A) (A) (A)
                 (A) (A) (A) (A) (A) (A) (A) (A) (A) (A) (A) (A)
                 (A) (A) (A) (A) (A) (A) (A) (A) (A) (A) (A) (A)
                 (A) (A) (A) (A) (A) (A) (A) (A) (A) (A) (A) (A)
                 (A) (A) (A) (A) (A) (A) (A) (A) (A) (A) (A) (A)
                 (A) (A) (A) (A) (A) (A) (A) (A) (A) (A) (A) (A)
                 (A) (A) (A) (A) (A) (A)
       Virtual   (A) (A) (A) (A) (A) (A) (A) (A) (A) (A) (A) (A)
                 (A) (A) (A) (A) (A) (A) (A) (A) (A) (A) (A) (A)
                 (A) (A) (A) (A) (A) (A) (A) (A) (A) (A) (A) (A)
                 (A) (A) (A) (A) (A) (A) (A) (A) (A) (A) (A) (A)
                 (A) (A) (A) (A) (A) (A) (A) (A) (A) (A) (A) (A)
                 (A) (A) (A) (A) (A) (A) (A) (A) (A) (A) (A) (A)
                 (A) (A) (A) (A) (A) (A) (A) (A) (A) (A) (A) (A)
                 (A) (A) (A) (A) (A) (A) (A) (A) (A) (A) (A) (A)
                 (A) (A) (A) (A) (A) (A) (A) (A) (A) (A) (A) (A)
                 (A) (A) (A) (A) (A) (A) (A) (A) (A) (A) (A) (A)
                 (A) (A) (A) (A) (A) (A) (A) (A) (A) (A) (A) (A)
                 (A) (A) (A) (A) (A) (A) (A) (A) (A) (A) (A) (A)
                 (A) (A) (A) (A) (A) (A) (A) (A) (A) (A) (A) (A)
                 (A) (A) (A) (A) (A) (A) (A) (A) (A) (A) (A) (A)
                 (A) (A) (A) (A) (A) (A) (A) (A) (A) (A) (A) (A)
                 (A) (A) (A) (A) (A) (A) (A) (A) (A) (A) (A) (A)
                 (A) (A) (A) (A) (A) (A) (A) (A) (A) (A) (A) (A)
                 (A) (A) (A) (A) (A) (A) (A) (A) (A) (A) (A) (A)
                 (A) (A) (A) (A) (A) (A) (A) (A) (A) (A) (A) (A)
                 (A) (A) (A) (A) (A) (A) (A) (A) (A) (A) (A) (A)
                 (A) (A) (A) (A) (A) (A) (A) (A) (A) (A) (A) (A)
                 (A) (A) (A) (A) (A) (A) (A) (A) (A) (A) (A) (A)
                 (A) (A) (A) (A) (A) (A) (A) (A) (A) (A) (A) (A)
                 (A) (A) (A) (A) (A) (A) (A) (A) (A) (A)
 The electronic state is 1-A.
 Alpha  occ. eigenvalues --  -19.67743 -19.65593 -14.88506 -14.85298 -14.70377
 Alpha  occ. eigenvalues --  -10.62443 -10.61988 -10.61207 -10.60970 -10.60077
 Alpha  occ. eigenvalues --  -10.59379 -10.59358 -10.58335 -10.57437 -10.57400
 Alpha  occ. eigenvalues --  -10.56300 -10.55481 -10.54948 -10.54204 -10.53575
 Alpha  occ. eigenvalues --  -10.53544 -10.53209  -1.20778  -1.20002  -1.17421
 Alpha  occ. eigenvalues --   -1.08524  -0.98240  -0.95023  -0.92963  -0.92043
 Alpha  occ. eigenvalues --   -0.87952  -0.84113  -0.83346  -0.81753  -0.79638
 Alpha  occ. eigenvalues --   -0.78923  -0.76794  -0.73703  -0.70233  -0.67902
 Alpha  occ. eigenvalues --   -0.67634  -0.66221  -0.63010  -0.61649  -0.60333
 Alpha  occ. eigenvalues --   -0.58325  -0.56946  -0.56192  -0.55806  -0.54289
 Alpha  occ. eigenvalues --   -0.53969  -0.53862  -0.52728  -0.50619  -0.50269
 Alpha  occ. eigenvalues --   -0.49722  -0.49593  -0.49305  -0.48613  -0.47655
 Alpha  occ. eigenvalues --   -0.47288  -0.46277  -0.45877  -0.44287  -0.43906
 Alpha  occ. eigenvalues --   -0.43053  -0.42923  -0.42436  -0.38168  -0.38049
 Alpha  occ. eigenvalues --   -0.37808  -0.36645  -0.34010  -0.32817  -0.29962
 Alpha  occ. eigenvalues --   -0.26956  -0.26715  -0.20320
 Alpha virt. eigenvalues --   -0.00754   0.02047   0.06240   0.08831   0.09715
 Alpha virt. eigenvalues --    0.11720   0.14154   0.14980   0.15198   0.16198
 Alpha virt. eigenvalues --    0.16408   0.16962   0.17684   0.18155   0.18855
 Alpha virt. eigenvalues --    0.19330   0.19706   0.20248   0.20304   0.20702
 Alpha virt. eigenvalues --    0.20864   0.22035   0.23306   0.23913   0.24136
 Alpha virt. eigenvalues --    0.24840   0.25743   0.25794   0.26487   0.27875
 Alpha virt. eigenvalues --    0.29151   0.30174   0.32520   0.33280   0.34220
 Alpha virt. eigenvalues --    0.34799   0.35287   0.38043   0.41363   0.42487
 Alpha virt. eigenvalues --    0.43187   0.43706   0.46449   0.47073   0.49832
 Alpha virt. eigenvalues --    0.51767   0.52328   0.53850   0.54061   0.55050
 Alpha virt. eigenvalues --    0.55814   0.56492   0.56672   0.57298   0.57790
 Alpha virt. eigenvalues --    0.58199   0.58914   0.59090   0.59201   0.60434
 Alpha virt. eigenvalues --    0.61362   0.62015   0.62921   0.64411   0.64480
 Alpha virt. eigenvalues --    0.65580   0.66020   0.66234   0.66846   0.67532
 Alpha virt. eigenvalues --    0.68094   0.69918   0.71054   0.71644   0.72718
 Alpha virt. eigenvalues --    0.72963   0.73714   0.74415   0.75980   0.76971
 Alpha virt. eigenvalues --    0.78076   0.78669   0.79162   0.80135   0.80269
 Alpha virt. eigenvalues --    0.80793   0.82519   0.83330   0.83644   0.85666
 Alpha virt. eigenvalues --    0.86467   0.88377   0.90078   0.90225   0.91589
 Alpha virt. eigenvalues --    0.91688   0.92433   0.93737   0.94061   0.94356
 Alpha virt. eigenvalues --    0.95004   0.95613   0.95821   0.96178   0.96611
 Alpha virt. eigenvalues --    0.97371   0.98254   0.98426   0.99300   0.99461
 Alpha virt. eigenvalues --    1.00592   1.01243   1.02853   1.04135   1.04669
 Alpha virt. eigenvalues --    1.05623   1.06764   1.07898   1.09322   1.09980
 Alpha virt. eigenvalues --    1.11431   1.12241   1.13276   1.14668   1.16630
 Alpha virt. eigenvalues --    1.18792   1.19787   1.20548   1.21579   1.22831
 Alpha virt. eigenvalues --    1.24325   1.26433   1.28196   1.28609   1.31418
 Alpha virt. eigenvalues --    1.31928   1.32678   1.34114   1.36703   1.37468
 Alpha virt. eigenvalues --    1.37659   1.38889   1.39858   1.41386   1.42302
 Alpha virt. eigenvalues --    1.43041   1.43118   1.44126   1.46513   1.46874
 Alpha virt. eigenvalues --    1.48974   1.49805   1.52009   1.53343   1.53616
 Alpha virt. eigenvalues --    1.54012   1.54797   1.55491   1.58941   1.59153
 Alpha virt. eigenvalues --    1.59598   1.63127   1.65050   1.71329   1.75408
 Alpha virt. eigenvalues --    1.76062   1.78211   1.78939   1.79393   1.80413
 Alpha virt. eigenvalues --    1.83064   1.84096   1.84227   1.86052   1.87203
 Alpha virt. eigenvalues --    1.89279   1.90610   1.90831   1.93232   1.94424
 Alpha virt. eigenvalues --    1.94813   1.94986   1.97006   1.97603   1.98112
 Alpha virt. eigenvalues --    2.01366   2.01768   2.03144   2.04256   2.05867
 Alpha virt. eigenvalues --    2.07044   2.08321   2.09018   2.09574   2.11385
 Alpha virt. eigenvalues --    2.11707   2.12209   2.13844   2.14846   2.17129
 Alpha virt. eigenvalues --    2.18825   2.19443   2.19950   2.20386   2.21633
 Alpha virt. eigenvalues --    2.22080   2.23307   2.25248   2.26479   2.27948
 Alpha virt. eigenvalues --    2.28207   2.30115   2.31216   2.31803   2.32105
 Alpha virt. eigenvalues --    2.33438   2.34159   2.34840   2.35723   2.36327
 Alpha virt. eigenvalues --    2.38528   2.38729   2.40948   2.42177   2.43928
 Alpha virt. eigenvalues --    2.44581   2.46111   2.46748   2.49433   2.52615
 Alpha virt. eigenvalues --    2.56727   2.58846   2.59541   2.59943   2.62887
 Alpha virt. eigenvalues --    2.64556   2.65287   2.70304   2.71120   2.72570
 Alpha virt. eigenvalues --    2.73147   2.74968   2.77218   2.78145   2.79431
 Alpha virt. eigenvalues --    2.80599   2.81495   2.83900   2.87630   2.89062
 Alpha virt. eigenvalues --    2.89560   2.93989   2.99892   3.01611   3.02844
 Alpha virt. eigenvalues --    3.06879   3.10608   3.18340   3.23003   3.24707
 Alpha virt. eigenvalues --    3.30242   3.44041   3.51892   3.54331   3.95789
 Alpha virt. eigenvalues --    4.08719   4.09405   4.14976   4.15623   4.17945
 Alpha virt. eigenvalues --    4.18512   4.23417   4.26877   4.31500   4.32629
 Alpha virt. eigenvalues --    4.35917   4.37492   4.41794   4.45809   4.48980
 Alpha virt. eigenvalues --    4.52870   4.59677   4.61106   4.73569   4.81656
 Alpha virt. eigenvalues --    4.92476
          Condensed to atoms (all electrons):
               1          2          3          4          5          6
     1  C    4.914018   0.239974  -0.052648  -0.010010   0.000605  -0.000030
     2  O    0.239974   8.277023   0.262501  -0.067550   0.004736   0.000306
     3  C   -0.052648   0.262501   4.477790   0.487478  -0.009411  -0.036042
     4  C   -0.010010  -0.067550   0.487478   5.129099   0.490494  -0.006422
     5  C    0.000605   0.004736  -0.009411   0.490494   4.993801   0.532331
     6  C   -0.000030   0.000306  -0.036042  -0.006422   0.532331   4.589833
     7  N   -0.000000  -0.000000  -0.000343   0.005384  -0.069268   0.402356
     8  C   -0.000000  -0.000000   0.000070   0.000013   0.000659  -0.082701
     9  C    0.000000  -0.000000   0.000001   0.000005  -0.000308   0.002689
    10  C    0.000000   0.000000   0.000001  -0.000000   0.000013  -0.000523
    11  N   -0.000000  -0.000000  -0.000002   0.000001  -0.000098   0.006488
    12  C   -0.000000   0.000000   0.000015   0.000001   0.000002  -0.000108
    13  C    0.000000  -0.000000  -0.000000   0.000000  -0.000000  -0.000003
    14  C   -0.000000   0.000000  -0.000000   0.000000  -0.000000   0.000000
    15  C    0.000000  -0.000000   0.000000  -0.000000   0.000000   0.000000
    16  O   -0.000000   0.000000  -0.000000   0.000000  -0.000000   0.000000
    17  C    0.000000   0.000000  -0.000000  -0.000000   0.000000   0.000000
    18  C   -0.000000   0.000000   0.000000   0.000000  -0.000000  -0.000007
    19  C    0.000000  -0.000000   0.000000   0.000000   0.000000   0.000000
    20  N    0.000001  -0.000021   0.003874   0.000070   0.009154  -0.028309
    21  C   -0.000005   0.001539   0.008281  -0.050390  -0.036509   0.479145
    22  C    0.003268  -0.046406   0.566638  -0.071475  -0.046414  -0.047713
    23  H    0.375192  -0.038504  -0.003743   0.002177  -0.000211  -0.000007
    24  H    0.387599  -0.028122   0.002795   0.000778   0.000004  -0.000000
    25  H    0.375006  -0.038555  -0.003727   0.002200  -0.000225  -0.000004
    26  H    0.005916  -0.010454  -0.042065   0.363890  -0.030708   0.001923
    27  H   -0.000007  -0.000051   0.003299  -0.041477   0.355462  -0.028419
    28  H   -0.000000   0.000000  -0.000000  -0.000000   0.000001   0.000101
    29  H    0.000000  -0.000001   0.000021   0.000000  -0.000000   0.000023
    30  H   -0.000000   0.000000  -0.000000  -0.000000   0.000000  -0.000000
    31  H   -0.000000  -0.000000   0.000000   0.000000  -0.000000  -0.000000
    32  H   -0.000000  -0.000000   0.000000   0.000000  -0.000000  -0.000000
    33  H   -0.000000  -0.000000   0.000000   0.000000  -0.000000  -0.000000
    34  H    0.000000  -0.000000   0.000000  -0.000000  -0.000000  -0.000000
    35  H   -0.000000  -0.000000   0.000000   0.000000  -0.000000   0.000000
    36  H   -0.000000   0.000000   0.000000  -0.000000  -0.000000  -0.000000
    37  H    0.000000   0.000000  -0.000000  -0.000000   0.000000  -0.000000
    38  H    0.000000   0.000000  -0.000000  -0.000000   0.000000   0.000000
    39  H   -0.000151  -0.000393  -0.028064   0.007258  -0.000127   0.004394
               7          8          9         10         11         12
     1  C   -0.000000  -0.000000   0.000000   0.000000  -0.000000  -0.000000
     2  O   -0.000000  -0.000000  -0.000000   0.000000  -0.000000   0.000000
     3  C   -0.000343   0.000070   0.000001   0.000001  -0.000002   0.000015
     4  C    0.005384   0.000013   0.000005  -0.000000   0.000001   0.000001
     5  C   -0.069268   0.000659  -0.000308   0.000013  -0.000098   0.000002
     6  C    0.402356  -0.082701   0.002689  -0.000523   0.006488  -0.000108
     7  N    7.056226   0.529005  -0.061616  -0.000924   0.011035  -0.000052
     8  C    0.529005   4.425878   0.469238   0.006776  -0.072896   0.004464
     9  C   -0.061616   0.469238   5.215003   0.537831  -0.064495   0.006823
    10  C   -0.000924   0.006776   0.537831   4.685332   0.245043  -0.050582
    11  N    0.011035  -0.072896  -0.064495   0.245043   7.008965   0.311289
    12  C   -0.000052   0.004464   0.006823  -0.050582   0.311289   4.875014
    13  C   -0.000000  -0.000291   0.000809  -0.026626  -0.006672   0.614039
    14  C   -0.000000   0.000003   0.000002   0.000515   0.004025  -0.051251
    15  C    0.000003  -0.000245   0.006418   0.006219  -0.049072  -0.020180
    16  O    0.000000   0.000001  -0.000048   0.004002   0.000028   0.004894
    17  C   -0.000000  -0.000000   0.000006  -0.000166  -0.000007   0.000027
    18  C   -0.000206  -0.000326  -0.077849   0.413517  -0.006987  -0.057981
    19  C   -0.000001   0.000214  -0.010243  -0.067181   0.004930   0.000209
    20  N   -0.136613   0.271293  -0.050701  -0.091672   0.160653  -0.040949
    21  C   -0.108404  -0.081326   0.008864   0.005297  -0.038955  -0.000402
    22  C    0.016950   0.004900  -0.000437  -0.000146  -0.000016   0.001019
    23  H    0.000000   0.000000   0.000000  -0.000000   0.000000  -0.000000
    24  H   -0.000000  -0.000000  -0.000000   0.000000  -0.000000   0.000000
    25  H    0.000000   0.000000   0.000000  -0.000000   0.000000   0.000000
    26  H   -0.000078   0.000001  -0.000000   0.000000  -0.000000  -0.000000
    27  H   -0.001008   0.000247   0.000003   0.000000   0.000001  -0.000000
    28  H   -0.000623  -0.024071   0.368238  -0.032433   0.004362  -0.000118
    29  H    0.000001  -0.000023  -0.000353   0.002157  -0.037588   0.355186
    30  H   -0.000000   0.000000  -0.000000  -0.000012   0.000214  -0.003650
    31  H    0.000000  -0.000000  -0.000000  -0.000014  -0.000036  -0.000038
    32  H    0.000000  -0.000000  -0.000000   0.000019  -0.000042  -0.000983
    33  H    0.000000  -0.000000  -0.000001  -0.000333  -0.000002  -0.000084
    34  H    0.000000   0.000000  -0.000000   0.000054  -0.000002  -0.000292
    35  H    0.000000   0.000000  -0.000000   0.000004  -0.000000   0.000009
    36  H   -0.000000  -0.000002   0.000022   0.004329  -0.000061  -0.000027
    37  H   -0.000001  -0.000025   0.003230  -0.003438  -0.000121   0.000009
    38  H   -0.000001   0.000011   0.004058  -0.002595  -0.000118   0.000035
    39  H   -0.000225  -0.000169   0.000015  -0.000023   0.000518   0.000135
              13         14         15         16         17         18
     1  C    0.000000  -0.000000   0.000000  -0.000000   0.000000  -0.000000
     2  O   -0.000000   0.000000  -0.000000   0.000000   0.000000   0.000000
     3  C   -0.000000  -0.000000   0.000000  -0.000000  -0.000000   0.000000
     4  C    0.000000   0.000000  -0.000000   0.000000  -0.000000   0.000000
     5  C   -0.000000  -0.000000   0.000000  -0.000000   0.000000  -0.000000
     6  C   -0.000003   0.000000   0.000000   0.000000   0.000000  -0.000007
     7  N   -0.000000  -0.000000   0.000003   0.000000  -0.000000  -0.000206
     8  C   -0.000291   0.000003  -0.000245   0.000001  -0.000000  -0.000326
     9  C    0.000809   0.000002   0.006418  -0.000048   0.000006  -0.077849
    10  C   -0.026626   0.000515   0.006219   0.004002  -0.000166   0.413517
    11  N   -0.006672   0.004025  -0.049072   0.000028  -0.000007  -0.006987
    12  C    0.614039  -0.051251  -0.020180   0.004894   0.000027  -0.057981
    13  C    4.918583   0.329576   0.410468  -0.083405  -0.003424  -0.063314
    14  C    0.329576   5.192018  -0.042186   0.001588  -0.010664   0.009046
    15  C    0.410468  -0.042186   4.684680   0.271231  -0.037503   0.537911
    16  O   -0.083405   0.001588   0.271231   8.299629   0.230592  -0.074031
    17  C   -0.003424  -0.010664  -0.037503   0.230592   4.939382  -0.004726
    18  C   -0.063314   0.009046   0.537911  -0.074031  -0.004726   5.013895
    19  C    0.009072  -0.000193  -0.050029  -0.016774   0.000970   0.359718
    20  N    0.002494  -0.000105   0.000819   0.000001  -0.000000   0.007761
    21  C    0.000209   0.000001  -0.000006  -0.000000   0.000000   0.000034
    22  C    0.000050  -0.000001   0.000001   0.000000  -0.000000  -0.000001
    23  H   -0.000000   0.000000   0.000000   0.000000   0.000000   0.000000
    24  H    0.000000  -0.000000   0.000000   0.000000  -0.000000  -0.000000
    25  H   -0.000000   0.000000  -0.000000  -0.000000  -0.000000   0.000000
    26  H   -0.000000   0.000000   0.000000  -0.000000   0.000000  -0.000000
    27  H   -0.000000  -0.000000   0.000000  -0.000000  -0.000000   0.000000
    28  H    0.000003   0.000000   0.000004   0.000000   0.000000  -0.005704
    29  H   -0.021806  -0.006200   0.002892  -0.000065  -0.000005   0.000687
    30  H   -0.035172   0.374460   0.003932   0.000211   0.000409  -0.000103
    31  H   -0.036292   0.382099  -0.003827   0.003410  -0.000796   0.000145
    32  H   -0.034661   0.372778  -0.003846   0.000378  -0.010211  -0.000169
    33  H   -0.000455   0.000991   0.004484  -0.041191   0.374434   0.003911
    34  H    0.004716  -0.010569  -0.005703  -0.044473   0.374349  -0.000540
    35  H   -0.000089   0.000328   0.002750  -0.027629   0.388933   0.000011
    36  H    0.000724  -0.000011  -0.009361   0.012946  -0.000778  -0.033265
    37  H   -0.000172   0.000004  -0.001063   0.000357  -0.000067  -0.030076
    38  H   -0.000177   0.000001   0.001538   0.000517   0.000151  -0.030781
    39  H    0.000079  -0.000003  -0.000000  -0.000000  -0.000000   0.000001
              19         20         21         22         23         24
     1  C    0.000000   0.000001  -0.000005   0.003268   0.375192   0.387599
[...]
    37  H   -0.000001   0.000027   0.004566  -0.004848  -0.000076   0.000012
    38  H   -0.000000  -0.000019   0.002615  -0.002134  -0.000123   0.000033
    39  H   -0.000104  -0.000134   0.000011  -0.000032   0.000526  -0.000905
              13         14         15         16         17         18
     1  C    0.000000  -0.000000   0.000000  -0.000000   0.000000  -0.000000
     2  O   -0.000000   0.000000  -0.000000   0.000000   0.000000   0.000000
     3  C   -0.000000  -0.000000  -0.000000  -0.000000  -0.000000   0.000000
     4  C    0.000000   0.000000  -0.000000   0.000000  -0.000000   0.000000
     5  C    0.000000  -0.000000   0.000000  -0.000000   0.000000  -0.000000
     6  C   -0.000005   0.000000   0.000001   0.000000   0.000000  -0.000018
     7  N    0.000000  -0.000000   0.000002  -0.000000  -0.000000  -0.000175
     8  C   -0.000178   0.000003  -0.000321   0.000001  -0.000000   0.000424
     9  C    0.000477   0.000006   0.005935  -0.000045   0.000005  -0.075915
    10  C   -0.022852   0.000316   0.004392   0.003834  -0.000347   0.410625
    11  N   -0.005458   0.003753  -0.051127  -0.000005   0.000006  -0.001667
    12  C    0.592764  -0.056462  -0.023091   0.004951  -0.000088  -0.054089
    13  C    4.893213   0.343559   0.429050  -0.087312  -0.002216  -0.064583
    14  C    0.343559   5.151248  -0.039807   0.002101  -0.001662   0.008265
    15  C    0.429050  -0.039807   4.730644   0.263171  -0.039680   0.526722
    16  O   -0.087312   0.002101   0.263171   8.301622   0.231312  -0.072544
    17  C   -0.002216  -0.001662  -0.039680   0.231312   4.919475  -0.008997
    18  C   -0.064583   0.008265   0.526722  -0.072544  -0.008997   5.008444
    19  C    0.007821  -0.000133  -0.050648  -0.012614   0.000697   0.351810
    20  N    0.003166  -0.000129   0.001358   0.000000   0.000000   0.008411
    21  C    0.000299   0.000003  -0.000009  -0.000000   0.000000   0.000045
    22  C    0.000133  -0.000004  -0.000001   0.000000  -0.000000   0.000005
    23  H   -0.000000   0.000000  -0.000000   0.000000   0.000000   0.000000
    24  H    0.000000  -0.000000   0.000000  -0.000000  -0.000000  -0.000000
    25  H   -0.000000   0.000000  -0.000000  -0.000000  -0.000000   0.000000
    26  H   -0.000000   0.000000   0.000000  -0.000000   0.000000  -0.000000
    27  H   -0.000000  -0.000000  -0.000000  -0.000000  -0.000000   0.000000
    28  H    0.000001   0.000000  -0.000027   0.000000   0.000000  -0.005109
    29  H   -0.018564  -0.003617   0.002342  -0.000056  -0.000000   0.000554
    30  H   -0.034756   0.375751   0.004122   0.000399  -0.000006  -0.000057
    31  H   -0.030110   0.378196  -0.004654   0.002352  -0.000197   0.000002
    32  H   -0.029281   0.371049  -0.005583   0.000190   0.001264  -0.000138
    33  H   -0.001156   0.000374  -0.001426  -0.041211   0.375548   0.004336
    34  H    0.005614  -0.001495  -0.001864  -0.040603   0.374051   0.000527
    35  H   -0.000005  -0.000099   0.004280  -0.031223   0.387604  -0.000071
    36  H    0.000469  -0.000006  -0.006968   0.011343  -0.002228  -0.034316
    37  H   -0.000096   0.000002   0.001324   0.000201   0.000016  -0.030014
    38  H   -0.000189   0.000001  -0.001134   0.000327   0.000193  -0.027571
    39  H    0.000149  -0.000005  -0.000001  -0.000000  -0.000000   0.000001
              19         20         21         22         23         24
     1  C    0.000000   0.000001  -0.000012   0.004204   0.373372   0.391951
     2  O   -0.000000  -0.000030   0.000989  -0.051638  -0.037721  -0.033853
     3  C    0.000000   0.003602   0.006199   0.556428  -0.003562   0.003268
     4  C    0.000000   0.000554  -0.043148  -0.082024   0.003370   0.000382
     5  C   -0.000000   0.009429  -0.043091  -0.038670  -0.000184   0.000005
     6  C    0.000000  -0.029537   0.438584  -0.050830  -0.000005   0.000000
     7  N   -0.000000  -0.109627  -0.102761   0.009321   0.000000  -0.000000
     8  C    0.000245   0.290422  -0.086490   0.004576   0.000000  -0.000000
     9  C   -0.009337  -0.053747   0.009016  -0.000337   0.000000  -0.000000
    10  C   -0.063783  -0.091315   0.006909  -0.000107  -0.000000   0.000000
    11  N    0.005089   0.147932  -0.054393  -0.001933   0.000000  -0.000000
    12  C    0.000027  -0.048362  -0.000417   0.001291   0.000000  -0.000000
    13  C    0.007821   0.003166   0.000299   0.000133  -0.000000   0.000000
    14  C   -0.000133  -0.000129   0.000003  -0.000004   0.000000  -0.000000
    15  C   -0.050648   0.001358  -0.000009  -0.000001  -0.000000   0.000000
    16  O   -0.012614   0.000000  -0.000000   0.000000   0.000000  -0.000000
    17  C    0.000697   0.000000   0.000000  -0.000000   0.000000  -0.000000
    18  C    0.351810   0.008411   0.000045   0.000005   0.000000  -0.000000
    19  C    5.200306  -0.000175   0.000001  -0.000000   0.000000  -0.000000
    20  N   -0.000175   7.239334   0.230691  -0.071577   0.000000  -0.000000
    21  C    0.000001   0.230691   4.845451   0.460910   0.000010  -0.000002
    22  C   -0.000000  -0.071577   0.460910   5.118671  -0.000003  -0.000084
    23  H    0.000000   0.000000   0.000010  -0.000003   0.579521  -0.029304
    24  H   -0.000000  -0.000000  -0.000002  -0.000084  -0.029304   0.513534
    25  H    0.000000   0.000000   0.000010  -0.000010  -0.047949  -0.029353
    26  H   -0.000000   0.000004   0.000634   0.004222   0.001057  -0.000008
    27  H   -0.000000  -0.000101   0.006521   0.000294   0.000001  -0.000000
    28  H    0.002429   0.004818  -0.000133   0.000000   0.000000   0.000000
    29  H    0.000013  -0.002620   0.000589   0.002116  -0.000000   0.000000
    30  H    0.000001  -0.000002   0.000002  -0.000002   0.000000  -0.000000
    31  H    0.000001   0.000001  -0.000000   0.000000   0.000000  -0.000000
    32  H    0.000001   0.000001  -0.000000   0.000000  -0.000000  -0.000000
    33  H    0.002160   0.000000   0.000000  -0.000000  -0.000000   0.000000
    34  H    0.000120   0.000000  -0.000000  -0.000000  -0.000000  -0.000000
    35  H   -0.000069   0.000000  -0.000000  -0.000000   0.000000  -0.000000
    36  H    0.378330   0.000002  -0.000000   0.000000   0.000000   0.000000
    37  H    0.371476   0.000002   0.000000  -0.000000  -0.000000  -0.000000
    38  H    0.368690   0.000003   0.000000  -0.000000   0.000000   0.000000
    39  H   -0.000000  -0.005196  -0.034446   0.336794   0.000029  -0.000028
              25         26         27         28         29         30
     1  C    0.373308   0.005573  -0.000007  -0.000000   0.000000  -0.000000
     2  O   -0.037742  -0.007466  -0.000036   0.000000  -0.000009   0.000000
     3  C   -0.003600  -0.041314   0.002769  -0.000000   0.000104  -0.000000
     4  C    0.003379   0.363395  -0.039977  -0.000000  -0.000003   0.000000
     5  C   -0.000184  -0.031434   0.353466   0.000001   0.000002   0.000000
     6  C   -0.000005   0.002279  -0.025342   0.000093   0.000078   0.000000
     7  N    0.000000  -0.000080  -0.000813  -0.000705   0.000001  -0.000000
     8  C    0.000000   0.000001   0.000316  -0.022777  -0.000019   0.000000
     9  C   -0.000000  -0.000000   0.000004   0.368470  -0.000345  -0.000000
    10  C   -0.000000   0.000000  -0.000000  -0.031267   0.002164  -0.000012
    11  N    0.000000  -0.000000   0.000001   0.004034  -0.041742   0.000187
    12  C    0.000000  -0.000000  -0.000000  -0.000091   0.353822  -0.003456
    13  C   -0.000000  -0.000000  -0.000000   0.000001  -0.018564  -0.034756
    14  C    0.000000   0.000000  -0.000000   0.000000  -0.003617   0.375751
    15  C   -0.000000   0.000000  -0.000000  -0.000027   0.002342   0.004122
    16  O   -0.000000  -0.000000  -0.000000   0.000000  -0.000056   0.000399
    17  C   -0.000000   0.000000  -0.000000   0.000000  -0.000000  -0.000006
    18  C    0.000000  -0.000000   0.000000  -0.005109   0.000554  -0.000057
    19  C    0.000000  -0.000000  -0.000000   0.002429   0.000013   0.000001
    20  N    0.000000   0.000004  -0.000101   0.004818  -0.002620  -0.000002
    21  C    0.000010   0.000634   0.006521  -0.000133   0.000589   0.000002
    22  C   -0.000010   0.004222   0.000294   0.000000   0.002116  -0.000002
    23  H   -0.047949   0.001057   0.000001   0.000000  -0.000000   0.000000
    24  H   -0.029353  -0.000008  -0.000000   0.000000   0.000000  -0.000000
    25  H    0.579965   0.001065   0.000001   0.000000  -0.000000   0.000000
    26  H    0.001065   0.548655  -0.004551  -0.000000  -0.000000   0.000000
    27  H    0.000001  -0.004551   0.531023   0.000000  -0.000000  -0.000000
    28  H    0.000000  -0.000000   0.000000   0.490926   0.000002  -0.000000
    29  H   -0.000000  -0.000000  -0.000000   0.000002   0.475213   0.004345
    30  H    0.000000   0.000000  -0.000000  -0.000000   0.004345   0.532408
    31  H   -0.000000   0.000000   0.000000   0.000000   0.000016  -0.024004
    32  H    0.000000  -0.000000   0.000000   0.000000   0.000059  -0.026198
    33  H    0.000000  -0.000000  -0.000000  -0.000000  -0.000001   0.000002
    34  H    0.000000   0.000000   0.000000   0.000000   0.000009  -0.000059
    35  H    0.000000  -0.000000  -0.000000  -0.000000  -0.000000  -0.000002
    36  H   -0.000000  -0.000000   0.000000  -0.000000   0.000000   0.000000
    37  H    0.000000   0.000000   0.000000   0.000738  -0.000000  -0.000000
    38  H   -0.000000   0.000000   0.000000   0.000300  -0.000000  -0.000000
    39  H    0.000029  -0.000143   0.000015   0.000000   0.003327  -0.000002
              31         32         33         34         35         36
     1  C   -0.000000  -0.000000  -0.000000  -0.000000  -0.000000  -0.000000
     2  O   -0.000000  -0.000000  -0.000000  -0.000000  -0.000000   0.000000
     3  C    0.000000   0.000000  -0.000000   0.000000   0.000000   0.000000
     4  C   -0.000000  -0.000000   0.000000   0.000000   0.000000  -0.000000
     5  C   -0.000000  -0.000000   0.000000  -0.000000  -0.000000  -0.000000
     6  C   -0.000000   0.000000  -0.000000  -0.000000  -0.000000   0.000000
     7  N    0.000000   0.000000   0.000000   0.000000   0.000000  -0.000000
     8  C   -0.000000  -0.000000  -0.000000   0.000000   0.000000  -0.000002
     9  C   -0.000000  -0.000000   0.000005  -0.000001  -0.000000   0.000008
    10  C    0.000006   0.000005  -0.000546   0.000075   0.000007   0.004328
    11  N   -0.000037  -0.000039   0.000002  -0.000012  -0.000000  -0.000065
    12  C    0.000069   0.000550  -0.000004  -0.000352   0.000009  -0.000022
    13  C   -0.030110  -0.029281  -0.001156   0.005614  -0.000005   0.000469
    14  C    0.378196   0.371049   0.000374  -0.001495  -0.000099  -0.000006
    15  C   -0.004654  -0.005583  -0.001426  -0.001864   0.004280  -0.006968
    16  O    0.002352   0.000190  -0.041211  -0.040603  -0.031223   0.011343
    17  C   -0.000197   0.001264   0.375548   0.374051   0.387604  -0.002228
    18  C    0.000002  -0.000138   0.004336   0.000527  -0.000071  -0.034316
    19  C    0.000001   0.000001   0.002160   0.000120  -0.000069   0.378330
    20  N    0.000001   0.000001   0.000000   0.000000   0.000000   0.000002
    21  C   -0.000000  -0.000000   0.000000  -0.000000  -0.000000  -0.000000
    22  C    0.000000   0.000000  -0.000000  -0.000000  -0.000000   0.000000
    23  H    0.000000  -0.000000  -0.000000  -0.000000   0.000000   0.000000
    24  H   -0.000000  -0.000000   0.000000  -0.000000  -0.000000   0.000000
    25  H   -0.000000   0.000000   0.000000   0.000000   0.000000  -0.000000
    26  H    0.000000  -0.000000  -0.000000   0.000000  -0.000000  -0.000000
    27  H    0.000000   0.000000  -0.000000   0.000000  -0.000000   0.000000
    28  H    0.000000   0.000000  -0.000000   0.000000  -0.000000  -0.000000
    29  H    0.000016   0.000059  -0.000001   0.000009  -0.000000   0.000000
    30  H   -0.024004  -0.026198   0.000002  -0.000059  -0.000002   0.000000
    31  H    0.512435  -0.032030   0.000008   0.000014  -0.000001  -0.000001
    32  H   -0.032030   0.542628  -0.000005   0.002193  -0.000011  -0.000000
    33  H    0.000008  -0.000005   0.574867  -0.043522  -0.029511  -0.002186
    34  H    0.000014   0.002193  -0.043522   0.573854  -0.028598   0.000336
    35  H   -0.000001  -0.000011  -0.029511  -0.028598   0.509637   0.000038
    36  H   -0.000001  -0.000000  -0.002186   0.000336   0.000038   0.502704
    37  H   -0.000000   0.000000   0.000072  -0.000002   0.000003  -0.021456
    38  H    0.000000  -0.000000   0.000175  -0.000008  -0.000027  -0.024901
    39  H   -0.000000  -0.000000   0.000000  -0.000000  -0.000000   0.000000
              37         38         39
     1  C    0.000000   0.000000  -0.000200
     2  O    0.000000   0.000000   0.000961
     3  C   -0.000000  -0.000000  -0.023838
     4  C   -0.000000  -0.000000   0.006576
     5  C    0.000000   0.000000  -0.000172
     6  C    0.000000   0.000000   0.002774
     7  N   -0.000001  -0.000000  -0.000104
     8  C    0.000027  -0.000019  -0.000134
     9  C    0.004566   0.002615   0.000011
    10  C   -0.004848  -0.002134  -0.000032
    11  N   -0.000076  -0.000123   0.000526
    12  C    0.000012   0.000033  -0.000905
    13  C   -0.000096  -0.000189   0.000149
    14  C    0.000002   0.000001  -0.000005
    15  C    0.001324  -0.001134  -0.000001
    16  O    0.000201   0.000327  -0.000000
    17  C    0.000016   0.000193  -0.000000
    18  C   -0.030014  -0.027571   0.000001
    19  C    0.371476   0.368690  -0.000000
    20  N    0.000002   0.000003  -0.005196
    21  C    0.000000   0.000000  -0.034446
    22  C   -0.000000  -0.000000   0.336794
    23  H   -0.000000   0.000000   0.000029
    24  H   -0.000000   0.000000  -0.000028
    25  H    0.000000  -0.000000   0.000029
    26  H    0.000000   0.000000  -0.000143
    27  H    0.000000   0.000000   0.000015
    28  H    0.000738   0.000300   0.000000
    29  H   -0.000000  -0.000000   0.003327
    30  H   -0.000000  -0.000000  -0.000002
    31  H   -0.000000   0.000000  -0.000000
    32  H    0.000000  -0.000000  -0.000000
    33  H    0.000072   0.000175   0.000000
    34  H   -0.000002  -0.000008  -0.000000
    35  H    0.000003  -0.000027  -0.000000
    36  H   -0.021456  -0.024901   0.000000
    37  H    0.519039  -0.031221  -0.000000
    38  H   -0.031221   0.529698  -0.000000
    39  H   -0.000000  -0.000000   0.543001
 Mulliken charges:
               1
     1  C   -0.237150
     2  O   -0.542952
     3  C    0.344797
     4  C   -0.229968
     5  C   -0.206048
     6  C    0.171150
     7  N   -0.613376
     8  C    0.561079
     9  C   -0.348128
    10  C    0.355728
    11  N   -0.456226
    12  C    0.052060
    13  C    0.020044
    14  C   -0.531209
    15  C    0.253000
    16  O   -0.536191
    17  C   -0.234750
    18  C    0.055090
    19  C   -0.552460
    20  N   -0.527315
    21  C    0.358041
    22  C   -0.201745
    23  H    0.161367
    24  H    0.183492
    25  H    0.161087
    26  H    0.158111
    27  H    0.176416
    28  H    0.188297
    29  H    0.222221
    30  H    0.171340
    31  H    0.197933
    32  H    0.175345
    33  H    0.162018
    34  H    0.159723
    35  H    0.188041
    36  H    0.194594
    37  H    0.190237
    38  H    0.185294
    39  H    0.171011
 Sum of Mulliken charges =  -0.00000
 Mulliken charges with hydrogens summed into heavy atoms:
               1
     1  C    0.268796
     2  O   -0.542952
     3  C    0.344797
     4  C   -0.071857
     5  C   -0.029631
     6  C    0.171150
     7  N   -0.613376
     8  C    0.561079
     9  C   -0.159831
    10  C    0.355728
    11  N   -0.456226
    12  C    0.274282
    13  C    0.020044
    14  C    0.013410
    15  C    0.253000
    16  O   -0.536191
    17  C    0.275032
    18  C    0.055090
    19  C    0.017665
    20  N   -0.527315
    21  C    0.358041
    22  C   -0.030734
 Electronic spatial extent (au):  <R**2>=           8385.6748
 Charge=              0.0000 electrons
 Dipole moment (field-independent basis, Debye):
    X=             -2.9871    Y=              3.7817    Z=              1.0900  Tot=              4.9409
 Quadrupole moment (field-independent basis, Debye-Ang):
   XX=            -99.5338   YY=           -129.6894   ZZ=           -131.2268
   XY=              6.5380   XZ=             -6.3685   YZ=              1.2598
 Traceless Quadrupole moment (field-independent basis, Debye-Ang):
   XX=             20.6162   YY=             -9.5394   ZZ=            -11.0768
   XY=              6.5380   XZ=             -6.3685   YZ=              1.2598
 Octapole moment (field-independent basis, Debye-Ang**2):
  XXX=             59.2397  YYY=             52.4916  ZZZ=              0.9109  XYY=            -33.9235
  XXY=             28.3270  XXZ=             41.5238  XZZ=            -12.7165  YZZ=              9.1086
  YYZ=             -0.8595  XYZ=             -7.1071
 Hexadecapole moment (field-independent basis, Debye-Ang**3):
 XXXX=          -7336.5771 YYYY=          -2246.0688 ZZZZ=           -220.9937 XXXY=            152.1542
 XXXZ=           -177.1009 YYYX=             95.9010 YYYZ=              0.6338 ZZZX=             -5.7625
 ZZZY=              0.8742 XXYY=          -1703.2807 XXZZ=          -1514.0340 YYZZ=           -414.6471
 XXYZ=             42.0093 YYXZ=             -2.5634 ZZXY=              5.7636
 N-N= 1.736159241167D+03 E-N=-5.731287792041D+03  KE= 9.641984466055D+02
 No NMR shielding tensors so no spin-rotation constants.
 Leave Link  601 at Mon Jun  9 12:49:14 2025, MaxMem=  5368709120 cpu:               2.9 elap:               0.2
 (Enter /opt/software/custom/apps/gaussian/x86_64-legacy/g16/l9999.exe)
 1\1\GINC-C02\FOpt\RM062X\6-31G(d)\C17H17N3O2\PHFMATIAS\09-Jun-2025\0\\
 #p opt M062X/6-31g(d)\\C17H17N3O2\\0,1\C,5.8672092214,-2.0606491427,-0
 .0145382643\O,4.4599772139,-2.0606034083,0.0303220887\C,3.8264865263,-
 0.8506009466,-0.0141873899\C,4.4976978343,0.3833006043,-0.1043240469\C
 ,3.7944845221,1.5806332639,-0.1468873898\C,2.3993501786,1.5671945962,-
 0.0998388994\N,1.5106262501,2.6247192973,-0.130073743\C,0.329403485,2.
 0518100306,-0.0582822275\C,-1.0628838239,2.3548432206,-0.0337961112\C,
 -1.7294651807,1.1481899411,0.0539449184\N,-0.8056506066,0.1004612942,0
 .0832771025\C,-1.1188789516,-1.2221043214,0.1839325078\C,-2.4268848955
 ,-1.5916194468,0.2348737512\C,-2.8426090902,-3.0288601055,0.3716497559
 \C,-3.4216732039,-0.5523728685,0.191839575\O,-4.733017098,-0.954161216
 4,0.2637773204\C,-5.3476947182,-1.0808321416,-1.0112891111\C,-3.109668
 1035,0.7776564225,0.1165454158\C,-4.1378650216,1.8686756308,0.11175255
 65\N,0.4245088594,0.6588208982,0.0182524608\C,1.7540528728,0.297724459
 6,-0.0076392332\C,2.4358769879,-0.9115430914,0.035888686\H,6.296615776
 1,-1.5194202978,0.8376991538\H,6.171590959,-3.1065060796,0.0325364385\
 H,6.2397807124,-1.6162124389,-0.9458339167\H,5.5799092099,0.4106743847
 ,-0.1418454502\H,4.3162683189,2.5290484175,-0.2168727347\H,-1.51128185
 98,3.3330579351,-0.0817466791\H,-0.287431929,-1.9142061152,0.220816247
 1\H,-1.9677730946,-3.6792587135,0.445863752\H,-3.4591348841,-3.1699590
 411,1.2637098147\H,-3.4376638065,-3.359656868,-0.485930399\H,-5.384666
 9299,-0.1134924388,-1.5261371226\H,-4.8058708425,-1.7969603931,-1.6409
 495597\H,-6.3612869746,-1.4424751794,-0.8349929479\H,-5.1263958823,1.4
 676357105,0.3397907844\H,-3.8860174939,2.6250867447,0.8627231295\H,-4.
 1708787122,2.3742123568,-0.8603629025\H,1.9576541751,-1.8813509539,0.1
 043326693\\Version=EM64L-G16RevB.01\State=1-A\HF=-972.2864034\RMSD=8.1
 85e-09\RMSF=4.351e-06\Dipole=-1.1841195,-1.4904395,-0.3938611\Quadrupo
 le=15.2161895,-6.9744101,-8.2417794,-4.8940764,4.9729198,0.8485371\PG=
 C01 [X(C17H17N3O2)]\\@


 VIRTUE IS LEARNED AT YOUR MOTHER'S KNEE,
 VICES ARE PICKED UP AT SOME OTHER JOINT.
 Job cpu time:       0 days  3 hours 45 minutes 42.1 seconds.
 Elapsed time:       0 days  0 hours 11 minutes 27.1 seconds.
 File lengths (MBytes):  RWF=     95 Int=      0 D2E=      0 Chk=     12 Scr=      1
 Normal termination of Gaussian 16 at Mon Jun  9 12:49:14 2025.
