 Entering Gaussian System, Link 0=g16
 Input=Impureza5.gjf
 Output=Impureza5.log
 Initial command:
 /opt/software/custom/apps/gaussian/x86_64-legacy/g16/l1.exe "/scratch/global/Gau-486075.inp" -scrdir="/scratch/global/"
 Entering Link 1 = /opt/software/custom/apps/gaussian/x86_64-legacy/g16/l1.exe PID=    486076.
  
 Copyright (c) 1988-2017, Gaussian, Inc.  All Rights Reserved.
  
 This is part of the Gaussian(R) 16 program.  It is based on
 the Gaussian(R) 09 system (copyright 2009, Gaussian, Inc.),
 the Gaussian(R) 03 system (copyright 2003, Gaussian, Inc.),
 the Gaussian(R) 98 system (copyright 1998, Gaussian, Inc.),
 the Gaussian(R) 94 system (copyright 1995, Gaussian, Inc.),
 the Gaussian 92(TM) system (copyright 1992, Gaussian, Inc.),
 the Gaussian 90(TM) system (copyright 1990, Gaussian, Inc.),
 the Gaussian 88(TM) system (copyright 1988, Gaussian, Inc.),
 the Gaussian 86(TM) system (copyright 1986, Carnegie Mellon
 University), and the Gaussian 82(TM) system (copyright 1983,
 Carnegie Mellon University). Gaussian is a federally registered
 trademark of Gaussian, Inc.
  
 This software contains proprietary and confidential information,
 including trade secrets, belonging to Gaussian, Inc.
  
 This software is provided under written license and may be
 used, copied, transmitted, or stored only in accord with that
 written license.
  
 The following legend is applicable only to US Government
 contracts under FAR:
  
                    RESTRICTED RIGHTS LEGEND
  
 Use, reproduction and disclosure by the US Government is
 subject to restrictions as set forth in subparagraphs (a)
 and (c) of the Commercial Computer Software - Restricted
 Rights clause in FAR 52.227-19.
  
 Gaussian, Inc.
 340 Quinnipiac St., Bldg. 40, Wallingford CT 06492
  
  
 ---------------------------------------------------------------
 Warning -- This program may not be used in any manner that
 competes with the business of Gaussian, Inc. or will provide
 assistance to any competitor of Gaussian, Inc.  The licensee
 of this program is prohibited from giving any competitor of
 Gaussian, Inc. access to this program.  By using this program,
 the user acknowledges that Gaussian, Inc. is engaged in the
 business of creating and licensing software in the field of
 computational chemistry and represents and warrants to the
 licensee that it is not a competitor of Gaussian, Inc. and that
 it will not use this program in any manner prohibited above.
 ---------------------------------------------------------------
  

 Cite this work as:
 Gaussian 16, Revision B.01,
 M. J. Frisch, G. W. Trucks, H. B. Schlegel, G. E. Scuseria, 
 M. A. Robb, J. R. Cheeseman, G. Scalmani, V. Barone, 
 G. A. Petersson, H. Nakatsuji, X. Li, M. Caricato, A. V. Marenich, 
 J. Bloino, B. G. Janesko, R. Gomperts, B. Mennucci, H. P. Hratchian, 
 J. V. Ortiz, A. F. Izmaylov, J. L. Sonnenberg, D. Williams-Young, 
 F. Ding, F. Lipparini, F. Egidi, J. Goings, B. Peng, A. Petrone, 
 T. Henderson, D. Ranasinghe, V. G. Zakrzewski, J. Gao, N. Rega, 
 G. Zheng, W. Liang, M. Hada, M. Ehara, K. Toyota, R. Fukuda, 
 J. Hasegawa, M. Ishida, T. Nakajima, Y. Honda, O. Kitao, H. Nakai, 
 T. Vreven, K. Throssell, J. A. Montgomery, Jr., J. E. Peralta, 
 F. Ogliaro, M. J. Bearpark, J. J. Heyd, E. N. Brothers, K. N. Kudin, 
 V. N. Staroverov, T. A. Keith, R. Kobayashi, J. Normand, 
 K. Raghavachari, A. P. Rendell, J. C. Burant, S. S. Iyengar, 
 J. Tomasi, M. Cossi, J. M. Millam, M. Klene, C. Adamo, R. Cammi, 
 J. W. Ochterski, R. L. Martin, K. Morokuma, O. Farkas, 
 J. B. Foresman, and D. J. Fox, Gaussian, Inc., Wallingford CT, 2016.
 
 ******************************************
 Gaussian 16:  EM64L-G16RevB.01 20-Dec-2017
                 9-Jun-2025 
 ******************************************
 %nprocshared=20
 Will use up to   20 processors via shared memory.
 %mem=40GB
 %chk=Impureza5.chk
 ---------------------
 #p opt M062X/6-31g(d)
 ---------------------
 1/18=20,19=15,26=3,38=1/1,3;
 2/9=110,12=2,17=6,18=5,40=1/2;
 3/5=1,6=6,7=1,11=2,25=1,30=1,71=1,74=-55/1,2,3;
 4//1;
 5/5=2,38=5/2;
 6/7=2,8=2,9=2,10=2,28=1/1;
 7//1,2,3,16;
 1/18=20,19=15,26=3/3(2);
 2/9=110/2;
 99//99;
 2/9=110/2;
 3/5=1,6=6,7=1,11=2,25=1,30=1,71=1,74=-55/1,2,3;
 4/5=5,16=3,69=1/1;
 5/5=2,38=5/2;
 7//1,2,3,16;
 1/18=20,19=15,26=3/3(-5);
 2/9=110/2;
 6/7=2,8=2,9=2,10=2,19=2,28=1/1;
 99/9=1/99;
 Leave Link    1 at Mon Jun  9 12:49:14 2025, MaxMem=  5368709120 cpu:               0.7 elap:               0.0
 (Enter /opt/software/custom/apps/gaussian/x86_64-legacy/g16/l101.exe)
 ----------
 C17H17N3O2
 ----------
 Symbolic Z-matrix:
 Charge =  0 Multiplicity = 1
 C                     5.6305   -1.089     0.9282 
 O                     5.0152   -0.4991   -0.2187 
 C                     3.6715   -0.3251   -0.1752 
 C                     3.1411    0.9349   -0.1183 
 C                     4.0437    2.1416   -0.1034 
 C                     1.7439    1.0912   -0.0743 
 C                     0.9364    2.2198   -0.0142 
 C                    -0.4028    1.7921    0.0087 
 N                    -1.6549    2.2247    0.0575 
 C                    -2.5047    1.1683    0.0456 
 C                    -3.8992    1.0638    0.0804 
 C                    -4.4942   -0.1829    0.0552 
 C                    -3.7148   -1.3333   -0.0041 
 C                    -2.3375   -1.2423   -0.0389 
 C                    -1.7254    0.0003   -0.0148 
 N                    -0.4006    0.4157   -0.0374 
 N                     0.9296   -0.0201   -0.0889 
 C                     1.4734   -1.2709   -0.1462 
 C                     2.8089   -1.4418   -0.1941 
 C                     3.3849   -2.833    -0.2575 
 O                    -5.8497   -0.2858    0.0889 
 C                    -6.4012   -1.6037    0.0601 
 H                     5.5092   -0.4275    1.7861 
 H                     5.1593   -2.0488    1.14 
 H                     6.6922   -1.2405    0.7334 
 H                     5.0781    1.8233   -0.2328 
 H                     3.7659    2.8131   -0.9158 
 H                     3.9399    2.6613    0.8491 
 H                     1.277     3.2444    0.0112 
 H                    -4.5085    1.9543    0.1272 
 H                    -4.1895   -2.3032   -0.0227 
 H                    -1.7377   -2.1393   -0.0846 
 H                     0.8247   -2.1343   -0.1569 
 H                     2.5759   -3.5572   -0.3527 
 H                     4.0475   -2.913    -1.1193 
 H                     3.948    -3.035     0.6537 
 H                    -6.092    -2.107    -0.8559 
 H                    -6.0432   -2.1663    0.9224 
 H                    -7.489    -1.5431    0.092 
 
 ITRead=  0  0  0  0  0  0  0  0  0  0  0  0  0  0  0  0  0  0  0  0
 ITRead=  0  0  0  0  0  0  0  0  0  0  0  0  0  0  0  0  0  0  0
 MicOpt= -1 -1 -1 -1 -1 -1 -1 -1 -1 -1 -1 -1 -1 -1 -1 -1 -1 -1 -1 -1
 MicOpt= -1 -1 -1 -1 -1 -1 -1 -1 -1 -1 -1 -1 -1 -1 -1 -1 -1 -1 -1
 NAtoms=     39 NQM=       39 NQMF=       0 NMMI=      0 NMMIF=      0
                NMic=       0 NMicF=      0.
                    Isotopes and Nuclear Properties:
 (Nuclear quadrupole moments (NQMom) in fm**2, nuclear magnetic moments (NMagM)
  in nuclear magnetons)

  Atom         1           2           3           4           5           6           7           8           9          10
 IAtWgt=          12          16          12          12          12          12          12          12          14          12
 AtmWgt=  12.0000000  15.9949146  12.0000000  12.0000000  12.0000000  12.0000000  12.0000000  12.0000000  14.0030740  12.0000000
 NucSpn=           0           0           0           0           0           0           0           0           2           0
 AtZEff=  -0.0000000  -0.0000000  -0.0000000  -0.0000000  -0.0000000  -0.0000000  -0.0000000  -0.0000000  -0.0000000  -0.0000000
 NQMom=    0.0000000   0.0000000   0.0000000   0.0000000   0.0000000   0.0000000   0.0000000   0.0000000   2.0440000   0.0000000
 NMagM=    0.0000000   0.0000000   0.0000000   0.0000000   0.0000000   0.0000000   0.0000000   0.0000000   0.4037610   0.0000000
 AtZNuc=   6.0000000   8.0000000   6.0000000   6.0000000   6.0000000   6.0000000   6.0000000   6.0000000   7.0000000   6.0000000

  Atom        11          12          13          14          15          16          17          18          19          20
 IAtWgt=          12          12          12          12          12          14          14          12          12          12
 AtmWgt=  12.0000000  12.0000000  12.0000000  12.0000000  12.0000000  14.0030740  14.0030740  12.0000000  12.0000000  12.0000000
 NucSpn=           0           0           0           0           0           2           2           0           0           0
 AtZEff=  -0.0000000  -0.0000000  -0.0000000  -0.0000000  -0.0000000  -0.0000000  -0.0000000  -0.0000000  -0.0000000  -0.0000000
 NQMom=    0.0000000   0.0000000   0.0000000   0.0000000   0.0000000   2.0440000   2.0440000   0.0000000   0.0000000   0.0000000
 NMagM=    0.0000000   0.0000000   0.0000000   0.0000000   0.0000000   0.4037610   0.4037610   0.0000000   0.0000000   0.0000000
 AtZNuc=   6.0000000   6.0000000   6.0000000   6.0000000   6.0000000   7.0000000   7.0000000   6.0000000   6.0000000   6.0000000

  Atom        21          22          23          24          25          26          27          28          29          30
 IAtWgt=          16          12           1           1           1           1           1           1           1           1
 AtmWgt=  15.9949146  12.0000000   1.0078250   1.0078250   1.0078250   1.0078250   1.0078250   1.0078250   1.0078250   1.0078250
 NucSpn=           0           0           1           1           1           1           1           1           1           1
 AtZEff=  -0.0000000  -0.0000000  -0.0000000  -0.0000000  -0.0000000  -0.0000000  -0.0000000  -0.0000000  -0.0000000  -0.0000000
 NQMom=    0.0000000   0.0000000   0.0000000   0.0000000   0.0000000   0.0000000   0.0000000   0.0000000   0.0000000   0.0000000
 NMagM=    0.0000000   0.0000000   2.7928460   2.7928460   2.7928460   2.7928460   2.7928460   2.7928460   2.7928460   2.7928460
 AtZNuc=   8.0000000   6.0000000   1.0000000   1.0000000   1.0000000   1.0000000   1.0000000   1.0000000   1.0000000   1.0000000

  Atom        31          32          33          34          35          36          37          38          39
 IAtWgt=           1           1           1           1           1           1           1           1           1
 AtmWgt=   1.0078250   1.0078250   1.0078250   1.0078250   1.0078250   1.0078250   1.0078250   1.0078250   1.0078250
 NucSpn=           1           1           1           1           1           1           1           1           1
 AtZEff=  -0.0000000  -0.0000000  -0.0000000  -0.0000000  -0.0000000  -0.0000000  -0.0000000  -0.0000000  -0.0000000
 NQMom=    0.0000000   0.0000000   0.0000000   0.0000000   0.0000000   0.0000000   0.0000000   0.0000000   0.0000000
 NMagM=    2.7928460   2.7928460   2.7928460   2.7928460   2.7928460   2.7928460   2.7928460   2.7928460   2.7928460
 AtZNuc=   1.0000000   1.0000000   1.0000000   1.0000000   1.0000000   1.0000000   1.0000000   1.0000000   1.0000000
 Leave Link  101 at Mon Jun  9 12:49:15 2025, MaxMem=  5368709120 cpu:               6.9 elap:               0.4
 (Enter /opt/software/custom/apps/gaussian/x86_64-legacy/g16/l103.exe)

 GradGradGradGradGradGradGradGradGradGradGradGradGradGradGradGradGradGrad
 Berny optimization.
 Initialization pass.
                           ----------------------------
                           !    Initial Parameters    !
                           ! (Angstroms and Degrees)  !
 --------------------------                            --------------------------
 ! Name  Definition              Value          Derivative Info.                !
 --------------------------------------------------------------------------------
 ! R1    R(1,2)                  1.429          estimate D2E/DX2                !
 ! R2    R(1,23)                 1.0901         estimate D2E/DX2                !
 ! R3    R(1,24)                 1.09           estimate D2E/DX2                !
 ! R4    R(1,25)                 1.09           estimate D2E/DX2                !
 ! R5    R(2,3)                  1.3556         estimate D2E/DX2                !
 ! R6    R(3,4)                  1.3683         estimate D2E/DX2                !
 ! R7    R(3,19)                 1.4112         estimate D2E/DX2                !
 ! R8    R(4,5)                  1.507          estimate D2E/DX2                !
 ! R9    R(4,6)                  1.4066         estimate D2E/DX2                !
 ! R10   R(5,26)                 1.09           estimate D2E/DX2                !
 ! R11   R(5,27)                 1.09           estimate D2E/DX2                !
 ! R12   R(5,28)                 1.09           estimate D2E/DX2                !
 ! R13   R(6,7)                  1.389          estimate D2E/DX2                !
 ! R14   R(6,17)                 1.3778         estimate D2E/DX2                !
 ! R15   R(7,8)                  1.406          estimate D2E/DX2                !
 ! R16   R(7,29)                 1.08           estimate D2E/DX2                !
 ! R17   R(8,9)                  1.3256         estimate D2E/DX2                !
 ! R18   R(8,16)                 1.3772         estimate D2E/DX2                !
 ! R19   R(9,10)                 1.3558         estimate D2E/DX2                !
 ! R20   R(10,11)                1.3988         estimate D2E/DX2                !
 ! R21   R(10,15)                1.4054         estimate D2E/DX2                !
 ! R22   R(11,12)                1.3816         estimate D2E/DX2                !
 ! R23   R(11,30)                1.08           estimate D2E/DX2                !
 ! R24   R(12,13)                1.3908         estimate D2E/DX2                !
 ! R25   R(12,21)                1.3598         estimate D2E/DX2                !
 ! R26   R(13,14)                1.3807         estimate D2E/DX2                !
 ! R27   R(13,31)                1.08           estimate D2E/DX2                !
 ! R28   R(14,15)                1.3854         estimate D2E/DX2                !
 ! R29   R(14,32)                1.08           estimate D2E/DX2                !
 ! R30   R(15,16)                1.3886         estimate D2E/DX2                !
 ! R31   R(16,17)                1.4007         estimate D2E/DX2                !
 ! R32   R(17,18)                1.3651         estimate D2E/DX2                !
 ! R33   R(18,19)                1.3472         estimate D2E/DX2                !
 ! R34   R(18,33)                1.08           estimate D2E/DX2                !
 ! R35   R(19,20)                1.5071         estimate D2E/DX2                !
 ! R36   R(20,34)                1.09           estimate D2E/DX2                !
 ! R37   R(20,35)                1.09           estimate D2E/DX2                !
 ! R38   R(20,36)                1.09           estimate D2E/DX2                !
 ! R39   R(21,22)                1.4289         estimate D2E/DX2                !
 ! R40   R(22,37)                1.0899         estimate D2E/DX2                !
 ! R41   R(22,38)                1.0901         estimate D2E/DX2                !
 ! R42   R(22,39)                1.09           estimate D2E/DX2                !
 ! A1    A(2,1,23)             109.4649         estimate D2E/DX2                !
 ! A2    A(2,1,24)             109.4703         estimate D2E/DX2                !
 ! A3    A(2,1,25)             109.4722         estimate D2E/DX2                !
 ! A4    A(23,1,24)            109.4703         estimate D2E/DX2                !
 ! A5    A(23,1,25)            109.474          estimate D2E/DX2                !
 ! A6    A(24,1,25)            109.4757         estimate D2E/DX2                !
 ! A7    A(1,2,3)              117.003          estimate D2E/DX2                !
 ! A8    A(2,3,4)              120.2496         estimate D2E/DX2                !
 ! A9    A(2,3,19)             120.2573         estimate D2E/DX2                !
 ! A10   A(4,3,19)             119.4925         estimate D2E/DX2                !
 ! A11   A(3,4,5)              120.3717         estimate D2E/DX2                !
 ! A12   A(3,4,6)              119.2537         estimate D2E/DX2                !
 ! A13   A(5,4,6)              120.3745         estimate D2E/DX2                !
 ! A14   A(4,5,26)             109.4749         estimate D2E/DX2                !
 ! A15   A(4,5,27)             109.4681         estimate D2E/DX2                !
 ! A16   A(4,5,28)             109.4741         estimate D2E/DX2                !
 ! A17   A(26,5,27)            109.4687         estimate D2E/DX2                !
 ! A18   A(26,5,28)            109.4721         estimate D2E/DX2                !
 ! A19   A(27,5,28)            109.4694         estimate D2E/DX2                !
 ! A20   A(4,6,7)              131.9971         estimate D2E/DX2                !
 ! A21   A(4,6,17)             119.8092         estimate D2E/DX2                !
 ! A22   A(7,6,17)             108.1938         estimate D2E/DX2                !
 ! A23   A(6,7,8)              107.894          estimate D2E/DX2                !
 ! A24   A(6,7,29)             126.0503         estimate D2E/DX2                !
 ! A25   A(8,7,29)             126.0556         estimate D2E/DX2                !
 ! A26   A(7,8,9)              143.2233         estimate D2E/DX2                !
 ! A27   A(7,8,16)             107.575          estimate D2E/DX2                !
 ! A28   A(9,8,16)             109.2017         estimate D2E/DX2                !
 ! A29   A(8,9,10)             109.7198         estimate D2E/DX2                !
 ! A30   A(9,10,11)            133.064          estimate D2E/DX2                !
 ! A31   A(9,10,15)            107.4795         estimate D2E/DX2                !
 ! A32   A(11,10,15)           119.4565         estimate D2E/DX2                !
 ! A33   A(10,11,12)           119.7533         estimate D2E/DX2                !
 ! A34   A(10,11,30)           120.1252         estimate D2E/DX2                !
 ! A35   A(12,11,30)           120.1215         estimate D2E/DX2                !
 ! A36   A(11,12,13)           120.3845         estimate D2E/DX2                !
 ! A37   A(11,12,21)           119.809          estimate D2E/DX2                !
 ! A38   A(13,12,21)           119.8065         estimate D2E/DX2                !
 ! A39   A(12,13,14)           120.3679         estimate D2E/DX2                !
 ! A40   A(12,13,31)           119.8174         estimate D2E/DX2                !
 ! A41   A(14,13,31)           119.8147         estimate D2E/DX2                !
 ! A42   A(13,14,15)           119.9603         estimate D2E/DX2                !
 ! A43   A(13,14,32)           120.0199         estimate D2E/DX2                !
 ! A44   A(15,14,32)           120.0198         estimate D2E/DX2                !
 ! A45   A(10,15,14)           120.0776         estimate D2E/DX2                !
 ! A46   A(10,15,16)           106.3265         estimate D2E/DX2                !
 ! A47   A(14,15,16)           133.5959         estimate D2E/DX2                !
 ! A48   A(8,16,15)            107.2725         estimate D2E/DX2                !
 ! A49   A(8,16,17)            108.2823         estimate D2E/DX2                !
 ! A50   A(15,16,17)           144.4452         estimate D2E/DX2                !
 ! A51   A(6,17,16)            108.0549         estimate D2E/DX2                !
 ! A52   A(6,17,18)            120.2687         estimate D2E/DX2                !
 ! A53   A(16,17,18)           131.6764         estimate D2E/DX2                !
 ! A54   A(17,18,19)           120.8378         estimate D2E/DX2                !
 ! A55   A(17,18,33)           119.5809         estimate D2E/DX2                !
 ! A56   A(19,18,33)           119.581          estimate D2E/DX2                !
 ! A57   A(3,19,18)            120.3362         estimate D2E/DX2                !
 ! A58   A(3,19,20)            119.8297         estimate D2E/DX2                !
 ! A59   A(18,19,20)           119.8324         estimate D2E/DX2                !
 ! A60   A(19,20,34)           109.4717         estimate D2E/DX2                !
 ! A61   A(19,20,35)           109.4719         estimate D2E/DX2                !
 ! A62   A(19,20,36)           109.4718         estimate D2E/DX2                !
 ! A63   A(34,20,35)           109.4732         estimate D2E/DX2                !
 ! A64   A(34,20,36)           109.47           estimate D2E/DX2                !
 ! A65   A(35,20,36)           109.4687         estimate D2E/DX2                !
 ! A66   A(12,21,22)           117.0019         estimate D2E/DX2                !
 ! A67   A(21,22,37)           109.4715         estimate D2E/DX2                !
 ! A68   A(21,22,38)           109.47           estimate D2E/DX2                !
 ! A69   A(21,22,39)           109.4705         estimate D2E/DX2                !
 ! A70   A(37,22,38)           109.4702         estimate D2E/DX2                !
 ! A71   A(37,22,39)           109.475          estimate D2E/DX2                !
 ! A72   A(38,22,39)           109.4701         estimate D2E/DX2                !
 ! D1    D(23,1,2,3)           -64.2667         estimate D2E/DX2                !
 ! D2    D(24,1,2,3)            55.7277         estimate D2E/DX2                !
 ! D3    D(25,1,2,3)           175.7332         estimate D2E/DX2                !
 ! D4    D(1,2,3,4)            111.7302         estimate D2E/DX2                !
 ! D5    D(1,2,3,19)           -68.5449         estimate D2E/DX2                !
 ! D6    D(2,3,4,5)              0.0009         estimate D2E/DX2                !
 ! D7    D(2,3,4,6)            179.9808         estimate D2E/DX2                !
 ! D8    D(19,3,4,5)          -179.7261         estimate D2E/DX2                !
 ! D9    D(19,3,4,6)             0.2539         estimate D2E/DX2                !
 ! D10   D(2,3,19,18)          179.7665         estimate D2E/DX2                !
 ! D11   D(2,3,19,20)            0.2379         estimate D2E/DX2                !
 ! D12   D(4,3,19,18)           -0.5065         estimate D2E/DX2                !
 ! D13   D(4,3,19,20)          179.9648         estimate D2E/DX2                !
 ! D14   D(3,4,5,26)             5.0059         estimate D2E/DX2                !
 ! D15   D(3,4,5,27)           125.0031         estimate D2E/DX2                !
 ! D16   D(3,4,5,28)          -114.9993         estimate D2E/DX2                !
 ! D17   D(6,4,5,26)          -174.9739         estimate D2E/DX2                !
 ! D18   D(6,4,5,27)           -54.9766         estimate D2E/DX2                !
 ! D19   D(6,4,5,28)            65.021          estimate D2E/DX2                !
 ! D20   D(3,4,6,7)           -179.995          estimate D2E/DX2                !
 ! D21   D(3,4,6,17)             0.0005         estimate D2E/DX2                !
 ! D22   D(5,4,6,7)             -0.0151         estimate D2E/DX2                !
 ! D23   D(5,4,6,17)           179.9805         estimate D2E/DX2                !
 ! D24   D(4,6,7,8)           -179.9995         estimate D2E/DX2                !
 ! D25   D(4,6,7,29)            -0.0419         estimate D2E/DX2                !
 ! D26   D(17,6,7,8)             0.0045         estimate D2E/DX2                !
 ! D27   D(17,6,7,29)          179.9621         estimate D2E/DX2                !
 ! D28   D(4,6,17,16)          179.9998         estimate D2E/DX2                !
 ! D29   D(4,6,17,18)           -0.0169         estimate D2E/DX2                !
 ! D30   D(7,6,17,16)           -0.0036         estimate D2E/DX2                !
 ! D31   D(7,6,17,18)          179.9797         estimate D2E/DX2                !
 ! D32   D(6,7,8,9)           -179.9708         estimate D2E/DX2                !
 ! D33   D(6,7,8,16)            -0.0037         estimate D2E/DX2                !
 ! D34   D(29,7,8,9)             0.0716         estimate D2E/DX2                !
 ! D35   D(29,7,8,16)         -179.9613         estimate D2E/DX2                !
 ! D36   D(7,8,9,10)           179.9729         estimate D2E/DX2                !
 ! D37   D(16,8,9,10)            0.0061         estimate D2E/DX2                !
 ! D38   D(7,8,16,15)         -179.9866         estimate D2E/DX2                !
 ! D39   D(7,8,16,17)            0.0014         estimate D2E/DX2                !
 ! D40   D(9,8,16,15)           -0.0074         estimate D2E/DX2                !
 ! D41   D(9,8,16,17)          179.9806         estimate D2E/DX2                !
 ! D42   D(8,9,10,11)          179.9999         estimate D2E/DX2                !
 ! D43   D(8,9,10,15)           -0.0024         estimate D2E/DX2                !
 ! D44   D(9,10,11,12)        -179.998          estimate D2E/DX2                !
 ! D45   D(9,10,11,30)          -0.0229         estimate D2E/DX2                !
 ! D46   D(15,10,11,12)          0.0044         estimate D2E/DX2                !
 ! D47   D(15,10,11,30)        179.9795         estimate D2E/DX2                !
 ! D48   D(9,10,15,14)         179.9739         estimate D2E/DX2                !
 ! D49   D(9,10,15,16)          -0.0022         estimate D2E/DX2                !
 ! D50   D(11,10,15,14)         -0.028          estimate D2E/DX2                !
 ! D51   D(11,10,15,16)        179.9959         estimate D2E/DX2                !
 ! D52   D(10,11,12,13)          0.0201         estimate D2E/DX2                !
 ! D53   D(10,11,12,21)       -179.996          estimate D2E/DX2                !
 ! D54   D(30,11,12,13)       -179.955          estimate D2E/DX2                !
 ! D55   D(30,11,12,21)          0.0289         estimate D2E/DX2                !
 ! D56   D(11,12,13,14)         -0.0214         estimate D2E/DX2                !
 ! D57   D(11,12,13,31)        179.9582         estimate D2E/DX2                !
 ! D58   D(21,12,13,14)        179.9947         estimate D2E/DX2                !
 ! D59   D(21,12,13,31)         -0.0257         estimate D2E/DX2                !
 ! D60   D(11,12,21,22)        179.9983         estimate D2E/DX2                !
 ! D61   D(13,12,21,22)         -0.0177         estimate D2E/DX2                !
 ! D62   D(12,13,14,15)         -0.0024         estimate D2E/DX2                !
 ! D63   D(12,13,14,32)        179.9804         estimate D2E/DX2                !
 ! D64   D(31,13,14,15)       -179.982          estimate D2E/DX2                !
 ! D65   D(31,13,14,32)          0.0008         estimate D2E/DX2                !
 ! D66   D(13,14,15,10)          0.027          estimate D2E/DX2                !
 ! D67   D(13,14,15,16)        179.9953         estimate D2E/DX2                !
 ! D68   D(32,14,15,10)       -179.9558         estimate D2E/DX2                !
 ! D69   D(32,14,15,16)          0.0125         estimate D2E/DX2                !
 ! D70   D(10,15,16,8)           0.0058         estimate D2E/DX2                !
 ! D71   D(10,15,16,17)       -179.9746         estimate D2E/DX2                !
 ! D72   D(14,15,16,8)        -179.9656         estimate D2E/DX2                !
 ! D73   D(14,15,16,17)          0.054          estimate D2E/DX2                !
 ! D74   D(8,16,17,6)            0.0014         estimate D2E/DX2                !
 ! D75   D(8,16,17,18)        -179.9794         estimate D2E/DX2                !
 ! D76   D(15,16,17,6)         179.9816         estimate D2E/DX2                !
 ! D77   D(15,16,17,18)          0.0009         estimate D2E/DX2                !
 ! D78   D(6,17,18,19)          -0.2363         estimate D2E/DX2                !
 ! D79   D(6,17,18,33)         179.9882         estimate D2E/DX2                !
 ! D80   D(16,17,18,19)        179.7424         estimate D2E/DX2                !
 ! D81   D(16,17,18,33)         -0.033          estimate D2E/DX2                !
 ! D82   D(17,18,19,3)           0.497          estimate D2E/DX2                !
 ! D83   D(17,18,19,20)       -179.9744         estimate D2E/DX2                !
 ! D84   D(33,18,19,3)        -179.7275         estimate D2E/DX2                !
 ! D85   D(33,18,19,20)         -0.1989         estimate D2E/DX2                !
 ! D86   D(3,19,20,34)        -175.0378         estimate D2E/DX2                !
 ! D87   D(3,19,20,35)         -55.0346         estimate D2E/DX2                !
 ! D88   D(3,19,20,36)          64.963          estimate D2E/DX2                !
 ! D89   D(18,19,20,34)          5.4312         estimate D2E/DX2                !
 ! D90   D(18,19,20,35)        125.4343         estimate D2E/DX2                !
 ! D91   D(18,19,20,36)       -114.568          estimate D2E/DX2                !
 ! D92   D(12,21,22,37)        -60.0005         estimate D2E/DX2                !
 ! D93   D(12,21,22,38)         59.9978         estimate D2E/DX2                !
 ! D94   D(12,21,22,39)        179.9952         estimate D2E/DX2                !
 --------------------------------------------------------------------------------
 Trust Radius=3.00D-01 FncErr=1.00D-07 GrdErr=1.00D-06 EigMax=2.50D+02 EigMin=1.00D-04
 Number of steps in this run=    218 maximum allowed number of steps=    234.
 GradGradGradGradGradGradGradGradGradGradGradGradGradGradGradGradGradGrad

 Leave Link  103 at Mon Jun  9 12:49:15 2025, MaxMem=  5368709120 cpu:               0.3 elap:               0.0
 (Enter /opt/software/custom/apps/gaussian/x86_64-legacy/g16/l202.exe)
                          Input orientation:                          
 ---------------------------------------------------------------------
 Center     Atomic      Atomic             Coordinates (Angstroms)
 Number     Number       Type             X           Y           Z
 ---------------------------------------------------------------------
      1          6           0        5.630500   -1.089000    0.928200
      2          8           0        5.015200   -0.499100   -0.218700
      3          6           0        3.671500   -0.325100   -0.175200
      4          6           0        3.141100    0.934900   -0.118300
      5          6           0        4.043700    2.141600   -0.103400
      6          6           0        1.743900    1.091200   -0.074300
      7          6           0        0.936400    2.219800   -0.014200
      8          6           0       -0.402800    1.792100    0.008700
      9          7           0       -1.654900    2.224700    0.057500
     10          6           0       -2.504700    1.168300    0.045600
     11          6           0       -3.899200    1.063800    0.080400
     12          6           0       -4.494200   -0.182900    0.055200
     13          6           0       -3.714800   -1.333300   -0.004100
     14          6           0       -2.337500   -1.242300   -0.038900
     15          6           0       -1.725400    0.000300   -0.014800
     16          7           0       -0.400600    0.415700   -0.037400
     17          7           0        0.929600   -0.020100   -0.088900
     18          6           0        1.473400   -1.270900   -0.146200
     19          6           0        2.808900   -1.441800   -0.194100
     20          6           0        3.384900   -2.833000   -0.257500
     21          8           0       -5.849700   -0.285800    0.088900
     22          6           0       -6.401200   -1.603700    0.060100
     23          1           0        5.509200   -0.427500    1.786100
     24          1           0        5.159300   -2.048800    1.140000
     25          1           0        6.692200   -1.240500    0.733400
     26          1           0        5.078100    1.823300   -0.232800
     27          1           0        3.765900    2.813100   -0.915800
     28          1           0        3.939900    2.661300    0.849100
     29          1           0        1.277000    3.244400    0.011200
     30          1           0       -4.508500    1.954300    0.127200
     31          1           0       -4.189500   -2.303200   -0.022700
     32          1           0       -1.737700   -2.139300   -0.084600
     33          1           0        0.824700   -2.134300   -0.156900
     34          1           0        2.575900   -3.557200   -0.352700
     35          1           0        4.047500   -2.913000   -1.119300
     36          1           0        3.948000   -3.035000    0.653700
     37          1           0       -6.092000   -2.107000   -0.855900
     38          1           0       -6.043200   -2.166300    0.922400
     39          1           0       -7.489000   -1.543100    0.092000
 ---------------------------------------------------------------------
                    Distance matrix (angstroms):
                    1          2          3          4          5
     1  C    0.000000
     2  O    1.428970   0.000000
     3  C    2.374598   1.355617   0.000000
     4  C    3.374677   2.361924   1.368270   0.000000
     5  C    3.744183   2.816097   2.495656   1.506995   0.000000
     6  C    4.567706   3.640235   2.394103   1.406604   2.528491
     7  C    5.819867   4.906205   3.739413   2.553920   3.109564
     8  C    6.748846   5.886937   4.595245   3.648308   4.461623
     9  N    8.050825   7.210104   5.909836   4.969518   5.701477
    10  C    8.488573   7.707073   6.358022   5.652999   6.622013
    11  C    9.806554   9.055310   7.701290   7.044283   8.017799
    12  C   10.202583   9.518597   8.170187   7.718639   8.850096
    13  C    9.394866   8.772391   7.456753   7.222267   8.501712
    14  C    8.027939   7.392352   6.080125   5.895894   7.223202
    15  C    7.495671   6.762149   5.409080   4.956512   6.154310
    16  N    6.290522   5.495509   4.141228   3.580468   4.768112
    17  N    4.927017   4.115631   2.760161   2.409071   3.790881
    18  C    4.297546   3.625642   2.393120   2.765421   4.272403
    19  C    3.057033   2.399385   1.411189   2.401001   3.791268
    20  C    3.080607   2.847187   2.525564   3.778344   5.020399
    21  O   11.538828  10.871346   9.524943   9.075656  10.188651
    22  C   12.073952  11.473102  10.156253   9.875819  11.097294
    23  H    1.090086   2.066007   2.689670   3.330281   3.509726
    24  H    1.090002   2.066011   2.629533   3.815615   4.511104
    25  H    1.090003   2.066034   3.284530   4.250655   4.376458
    26  H    3.183482   2.323294   2.568553   2.134089   1.089974
    27  H    4.701431   3.607959   3.225787   2.134014   1.089990
    28  H    4.114503   3.504939   3.168567   2.134104   1.090009
    29  H    6.210653   5.295355   4.302291   2.970762   2.980592
    30  H   10.616148   9.840715   8.497029   7.721129   8.557358
    31  H    9.940367   9.381881   8.107494   8.014495   9.356727
    32  H    7.511276   6.950532   5.706047   5.766674   7.193820
    33  H    5.036448   4.498665   3.373101   3.845411   5.352396
    34  H    4.130774   3.914092   3.417355   4.533581   5.890069
    35  H    3.166247   2.752169   2.780275   4.077977   5.155681
    36  H    2.587097   2.886310   2.847294   4.123976   5.232547
    37  H   11.901107  11.241052   9.948088   9.749223  11.015865
    38  H   11.723305  11.241436   9.948374   9.749455  11.016162
    39  H   13.153962  12.551553  11.229946  10.917130  12.108607
                    6          7          8          9         10
     6  C    0.000000
     7  C    1.389031   0.000000
     8  C    2.259750   1.406026   0.000000
     9  N    3.585252   2.592296   1.325624   0.000000
    10  C    4.250991   3.598666   2.192823   1.355833   0.000000
    11  C    5.645287   4.972757   3.572167   2.526875   1.398843
    12  C    6.368202   5.938788   4.543384   3.722656   2.404983
    13  C    5.973319   5.853058   4.553859   4.111733   2.779355
    14  C    4.701521   4.764994   3.599016   3.534873   2.417869
    15  C    3.637258   3.465741   2.227189   2.226691   1.405411
    16  N    2.248676   2.245637   1.377174   2.203351   2.236187
    17  N    1.377783   2.241156   2.251418   3.426398   3.636592
    18  C    2.378625   3.534230   3.595287   4.695421   4.670307
    19  C    2.750394   4.116544   4.562264   5.782044   5.924899
    20  C    4.257439   5.620065   5.984069   7.146967   7.126686
    21  O    7.719166   7.234626   5.830336   4.888757   3.647644
    22  C    8.580396   8.274361   6.893105   6.097870   4.781935
    23  H    4.465985   5.582094   6.560299   7.832404   8.354550
    24  H    4.795736   6.114410   6.853416   8.115906   8.383576
    25  H    5.529455   6.757353   7.749895   9.063031   9.531965
    26  H    3.417306   4.166375   5.486307   6.751199   7.616127
    27  H    2.785955   3.028359   4.390353   5.538827   6.553631
    28  H    2.853121   3.156140   4.507862   5.667366   6.663898
    29  H    2.204898   1.080027   2.220565   3.104508   4.314236
    30  H    6.314907   5.453203   4.110611   2.867230   2.153989
    31  H    6.835923   6.836114   5.577774   5.189654   3.859343
    32  H    4.749503   5.114442   4.152899   4.367098   3.397861
    33  H    3.354937   4.357870   4.117135   5.019488   4.693940
    34  H    4.730471   6.014671   6.133374   7.176232   6.949927
    35  H    4.736266   6.102936   6.573851   7.765191   7.806749
    36  H    4.734297   6.093336   6.530420   7.707943   7.724950
    37  H    8.499454   8.296268   6.951080   6.267837   4.940548
    38  H    8.499626   8.296379   6.951107   6.267863   4.940579
    39  H    9.602793   9.228112   7.832288   6.945087   5.674248
                   11         12         13         14         15
    11  C    0.000000
    12  C    1.381637   0.000000
    13  C    2.405667   1.390827   0.000000
    14  C    2.787694   2.404691   1.380742   0.000000
    15  C    2.421880   2.775737   2.395061   1.385389   0.000000
    16  N    3.560072   4.138171   3.747537   2.549617   1.388583
    17  N    4.951849   5.428156   4.827229   3.488584   2.656112
    18  C    5.862338   6.069313   5.190521   3.812518   3.444639
    19  C    7.166030   7.415002   6.527368   5.152603   4.761478
    20  C    8.267850   8.318716   7.260789   5.943398   5.848218
    21  O    2.371907   1.359818   2.379854   3.642358   4.135512
    22  C    3.657318   2.378097   2.700737   4.080940   4.943838
    23  H    9.677364  10.154992   9.439675   8.097236   7.467643
    24  H    9.636776   9.891837   8.976110   7.631662   7.275402
    25  H   10.858820  11.256732  10.433512   9.062667   8.541392
    26  H    9.014813   9.784514   9.345133   8.026620   7.046876
    27  H    7.925038   8.840142   8.601436   7.380157   6.235224
    28  H    8.037064   8.936095   8.676359   7.445293   6.318455
    29  H    5.617192   6.712307   6.773008   5.761736   4.420324
    30  H    1.080012   2.138460   3.384599   3.867697   3.403517
    31  H    3.381064   2.143498   1.079996   2.134403   3.373124
    32  H    3.867707   3.383096   2.136596   1.080027   2.140774
    33  H    5.709587   5.669537   4.612159   3.287719   3.328621
    34  H    7.966689   7.844654   6.681329   5.440472   5.592063
    35  H    8.966842   9.043978   7.999527   6.687804   6.560001
    36  H    8.871718   8.931037   7.876991   6.572745   6.468957
    37  H    3.967241   2.661809   2.641071   3.938460   4.920910
    38  H    3.967272   2.661825   2.640784   3.938285   4.920965
    39  H    4.436522   3.289426   3.781248   5.161934   5.967627
                   16         17         18         19         20
    16  N    0.000000
    17  N    1.400716   0.000000
    18  C    2.523556   1.365102   0.000000
    19  C    3.711570   2.358827   1.347242   0.000000
    20  C    4.993246   3.737557   2.471108   1.507061   0.000000
    21  O    5.495520   6.786834   7.392800   8.740010   9.585722
    22  C    6.332036   7.501374   7.884329   9.215030   9.868120
    23  H    6.241945   4.965313   4.553327   3.498802   3.804653
    24  H    6.194556   4.849349   3.980615   2.769955   2.390914
    25  H    7.324271   5.947530   5.292494   3.997599   3.802127
    26  H    5.660006   4.541903   4.751361   3.976386   4.954661
    27  H    4.886598   4.093334   4.746251   4.420506   5.697101
    28  H    4.966744   4.139040   4.747256   4.382106   5.632044
    29  H    3.289110   3.284458   4.522309   4.934505   6.438186
    30  H    4.389673   5.789463   6.801455   8.073480   9.239697
    31  H    4.663518   5.605543   5.757546   7.053296   7.596536
    32  H    2.884110   3.406687   3.327022   4.601094   5.172248
    33  H    2.831632   2.117893   1.079993   2.101901   2.655735
    34  H    4.974224   3.910367   2.546628   2.134095   1.089959
    35  H    5.660066   4.376288   3.204592   2.134140   1.090017
    36  H    5.594218   4.330337   3.142536   2.134151   1.090033
    37  H    6.279012   7.365209   7.644476   8.950223   9.523486
    38  H    6.279082   7.365381   7.644797   8.951600   9.525005
    39  H    7.355206   8.557165   8.969696  10.302372  10.955715
                   21         22         23         24         25
    21  O    0.000000
    22  C    1.428930   0.000000
    23  H   11.485869  12.092152   0.000000
    24  H   11.198708  11.619357   1.780025   0.000000
    25  H   12.594685  13.115730   1.780066   1.780015   0.000000
    26  H   11.134119  11.983507   3.054162   4.109055   3.595237
    27  H   10.152456  11.127912   4.565178   5.459482   5.264481
    28  H   10.251808  11.213880   3.589061   4.874074   4.776252
    29  H    7.953503   9.080816   5.877469   6.660661   7.068259
    30  H    2.611194   4.030655  10.429728  10.512703  11.663186
    31  H    2.615076   2.321158  10.042649   9.424259  10.959581
    32  H    4.513769   4.696386   7.677717   7.005458   8.517052
    33  H    6.930006   7.248604   5.350977   4.525264   6.001589
    34  H    9.049188   9.196461   4.793093   3.343259   4.846714
    35  H   10.310989  10.596253   4.093364   2.662213   3.636508
    36  H   10.191763  10.464555   3.243259   1.635948   3.279820
    37  H    2.065944   1.089941  12.016186  11.427106  12.911718
    38  H    2.066021   1.090066  11.714408  11.205229  12.770405
    39  H    2.065942   1.089954  13.155521  12.701714  14.198922
                   26         27         28         29         30
    26  H    0.000000
    27  H    1.779905   0.000000
    28  H    1.779958   1.779941   0.000000
    29  H    4.065393   2.690720   2.851862   0.000000
    30  H    9.594251   8.383978   8.508610   5.928729   0.000000
    31  H   10.146948   9.500660   9.565220   7.788430   4.272065
    32  H    7.885385   7.450287   7.493510   6.171047   4.947702
    33  H    5.810316   5.805459   5.806400   5.400301   6.726097
    34  H    5.935079   6.504914   6.478778   6.934070   8.988641
    35  H    4.927530   5.736631   5.912613   6.845968   9.922173
    36  H    5.066171   6.057785   5.699656   6.854043   9.832737
    37  H   11.857767  11.017675  11.237559   9.148306   4.468570
    38  H   11.871593  11.153109  11.089336   9.148294   4.468444
    39  H   13.014229  12.110529  12.201227   9.988465   4.595261
                   31         32         33         34         35
    31  H    0.000000
    32  H    2.458052   0.000000
    33  H    5.018838   2.563425   0.000000
    34  H    6.888545   4.548567   2.264880   0.000000
    35  H    8.332020   5.927711   3.452394   1.779965   0.000000
    36  H    8.198290   5.802978   3.350125   1.779942   1.779976
    37  H    2.086198   4.422203   6.951984   8.802771  10.174894
    38  H    2.085224   4.421777   6.952263   8.823229  10.322225
    39  H    3.387862   5.784816   8.338410  10.274073  11.680527
                   36         37         38         39
    36  H    0.000000
    37  H   10.195179   0.000000
    38  H   10.032493   1.779958   0.000000
    39  H   11.547564   1.779918   1.779966   0.000000
 Stoichiometry    C17H17N3O2
 Framework group  C1[X(C17H17N3O2)]
 Deg. of freedom   111
 Full point group                 C1      NOp   1
 Largest Abelian subgroup         C1      NOp   1
 Largest concise Abelian subgroup C1      NOp   1
                         Standard orientation:                         
 ---------------------------------------------------------------------
 Center     Atomic      Atomic             Coordinates (Angstroms)
 Number     Number       Type             X           Y           Z
 ---------------------------------------------------------------------
      1          6           0        5.586750   -1.083290    0.897350
      2          8           0        4.970938   -0.486814   -0.245868
      3          6           0        3.628480   -0.304807   -0.197116
      4          6           0        3.105921    0.958228   -0.135188
      5          6           0        4.015855    2.159411   -0.120532
      6          6           0        1.709859    1.122858   -0.085788
      7          6           0        0.909423    2.256163   -0.019992
      8          6           0       -0.432250    1.836507    0.006651
      9          7           0       -1.681527    2.276542    0.061015
     10          6           0       -2.537741    1.225329    0.049543
     11          6           0       -3.932715    1.129171    0.089086
     12          6           0       -4.535335   -0.113844    0.062927
     13          6           0       -3.763128   -1.268780   -0.002022
     14          6           0       -2.385436   -1.186018   -0.041537
     15          6           0       -1.765745    0.052796   -0.016550
     16          7           0       -0.438544    0.460239   -0.042872
     17          7           0        0.888801    0.016539   -0.100224
     18          6           0        1.424814   -1.237377   -0.162578
     19          6           0        2.759076   -1.416224   -0.215692
     20          6           0        3.326416   -2.810716   -0.284610
     21          8           0       -5.891304   -0.208635    0.101235
     22          6           0       -6.450869   -1.523102    0.071143
     23          1           0        5.472521   -0.423218    1.757318
     24          1           0        5.110510   -2.040752    1.108457
     25          1           0        6.646811   -1.240715    0.698367
     26          1           0        5.047841    1.835191   -0.254432
     27          1           0        3.739223    2.834609   -0.930262
     28          1           0        3.918605    2.677343    0.833620
     29          1           0        1.256306    3.278619    0.006728
     30          1           0       -4.536444    2.023217    0.140281
     31          1           0       -4.243752   -2.235745   -0.021325
     32          1           0       -1.791242   -2.086509   -0.091614
     33          1           0        0.770867   -2.096812   -0.173093
     34          1           0        2.512713   -3.529773   -0.378703
     35          1           0        3.985437   -2.892561   -1.148977
     36          1           0        3.891535   -3.018395    0.624060
     37          1           0       -6.147994   -2.025967   -0.847206
     38          1           0       -6.093202   -2.090011    0.930755
     39          1           0       -7.538161   -1.456010    0.107096
 ---------------------------------------------------------------------
 Rotational constants (GHZ):           0.8004608           0.1322741           0.1147538
 Leave Link  202 at Mon Jun  9 12:49:15 2025, MaxMem=  5368709120 cpu:               0.5 elap:               0.1
 (Enter /opt/software/custom/apps/gaussian/x86_64-legacy/g16/l301.exe)
 Standard basis: 6-31G(d) (6D, 7F)
 Ernie: Thresh=  0.10000D-02 Tol=  0.10000D-05 Strict=F.
 There are   364 symmetry adapted cartesian basis functions of A   symmetry.
 There are   364 symmetry adapted basis functions of A   symmetry.
   364 basis functions,   684 primitive gaussians,   364 cartesian basis functions
    78 alpha electrons       78 beta electrons
       nuclear repulsion energy      1724.7839340623 Hartrees.
 IExCor= 4336 DFT=T Ex+Corr=M062X ExCW=0 ScaHFX=  0.540000
 ScaDFX=  1.000000  1.000000  1.000000  1.000000 ScalE2=  1.000000  1.000000
 IRadAn=      5 IRanWt=     -1 IRanGd=            0 ICorTp=0 IEmpDi=  4
 NAtoms=   39 NActive=   39 NUniq=   39 SFac= 1.00D+00 NAtFMM=   60 NAOKFM=F Big=F
 Integral buffers will be    131072 words long.
 Raffenetti 2 integral format.
 Two-electron integral symmetry is turned on.
 Leave Link  301 at Mon Jun  9 12:49:15 2025, MaxMem=  5368709120 cpu:               1.2 elap:               0.1
 (Enter /opt/software/custom/apps/gaussian/x86_64-legacy/g16/l302.exe)
 NPDir=0 NMtPBC=     1 NCelOv=     1 NCel=       1 NClECP=     1 NCelD=      1
         NCelK=      1 NCelE2=     1 NClLst=     1 CellRange=     0.0.
 One-electron integrals computed using PRISM.
 One-electron integral symmetry used in STVInt
 NBasis=   364 RedAO= T EigKep=  3.15D-04  NBF=   364
 NBsUse=   364 1.00D-06 EigRej= -1.00D+00 NBFU=   364
 Precomputing XC quadrature grid using
 IXCGrd= 4 IRadAn=           5 IRanWt=          -1 IRanGd=           0 AccXCQ= 0.00D+00.
 Generated NRdTot=       0 NPtTot=           0 NUsed=           0 NTot=          32
 NSgBfM=   359   359   359   359   359 MxSgAt=    39 MxSgA2=    39.
 Leave Link  302 at Mon Jun  9 12:49:15 2025, MaxMem=  5368709120 cpu:               6.9 elap:               0.4
 (Enter /opt/software/custom/apps/gaussian/x86_64-legacy/g16/l303.exe)
 DipDrv:  MaxL=1.
 Leave Link  303 at Mon Jun  9 12:49:15 2025, MaxMem=  5368709120 cpu:               0.9 elap:               0.1
 (Enter /opt/software/custom/apps/gaussian/x86_64-legacy/g16/l401.exe)
 ExpMin= 1.61D-01 ExpMax= 5.48D+03 ExpMxC= 8.25D+02 IAcc=3 IRadAn=         5 AccDes= 0.00D+00
 Harris functional with IExCor= 1009 and IRadAn=       5 diagonalized for initial guess.
 HarFok:  IExCor= 1009 AccDes= 0.00D+00 IRadAn=         5 IDoV= 1 UseB2=F ITyADJ=14
 ICtDFT=  3500011 ScaDFX=  1.000000  1.000000  1.000000  1.000000
 FoFCou: FMM=F IPFlag=           0 FMFlag=      100000 FMFlg1=           0
         NFxFlg=           0 DoJE=T BraDBF=F KetDBF=T FulRan=T
         wScrn=  0.000000 ICntrl=       500 IOpCl=  0 I1Cent=   200000004 NGrid=           0
         NMat0=    1 NMatS0=      1 NMatT0=    0 NMatD0=    1 NMtDS0=    0 NMtDT0=    0
 Petite list used in FoFCou.
 Harris En= -971.799181585686    
 JPrj=0 DoOrth=F DoCkMO=F.
 Leave Link  401 at Mon Jun  9 12:49:16 2025, MaxMem=  5368709120 cpu:              23.7 elap:               1.2
 (Enter /opt/software/custom/apps/gaussian/x86_64-legacy/g16/l502.exe)
 Integral symmetry usage will be decided dynamically.
 Closed shell SCF:
 Using DIIS extrapolation, IDIIS=  1040.
 NGot=  5368709120 LenX=  5368432803 LenY=  5368299866
 Requested convergence on RMS density matrix=1.00D-08 within 128 cycles.
 Requested convergence on MAX density matrix=1.00D-06.
 Requested convergence on             energy=1.00D-06.
 No special actions if energy rises.
 Fock matrices will be formed incrementally for  20 cycles.
 Integral accuracy reduced to 1.0D-05 until final iterations.

 Cycle   1  Pass 0  IDiag  1:
 FoFJK:  IHMeth= 1 ICntrl=       0 DoSepK=F KAlg= 0 I1Cent=           0 FoldK=F
 IRaf= 710000000 NMat=       1 IRICut=       1 DoRegI=T DoRafI=F ISym2E= 0 IDoP0=0 IntGTp=1.
 FoFCou: FMM=F IPFlag=           0 FMFlag=      100000 FMFlg1=           0
         NFxFlg=           0 DoJE=F BraDBF=F KetDBF=F FulRan=T
         wScrn=  0.000000 ICntrl=         0 IOpCl=  0 I1Cent=           0 NGrid=           0
         NMat0=    1 NMatS0=      1 NMatT0=    0 NMatD0=    1 NMtDS0=    0 NMtDT0=    0
 Symmetry not used in FoFCou.
 E= -971.701148661334    
 DIIS: error= 2.60D-02 at cycle   1 NSaved=   1.
 NSaved= 1 IEnMin= 1 EnMin= -971.701148661334     IErMin= 1 ErrMin= 2.60D-02
 ErrMax= 2.60D-02  0.00D+00 EMaxC= 1.00D-01 BMatC= 6.18D-01 BMatP= 6.18D-01
 IDIUse=3 WtCom= 7.40D-01 WtEn= 2.60D-01
 Coeff-Com:  0.100D+01
 Coeff-En:   0.100D+01
 Coeff:      0.100D+01
 Gap=     0.249 Goal=   None    Shift=    0.000
 GapD=    0.249 DampG=1.000 DampE=0.500 DampFc=0.5000 IDamp=-1.
 Damping current iteration by 5.00D-01
 RMSDP=4.85D-03 MaxDP=2.09D-01              OVMax= 3.47D-01

 Cycle   2  Pass 0  IDiag  1:
 RMSU=  2.40D-03    CP:  9.79D-01
 E= -971.941408415167     Delta-E=       -0.240259753833 Rises=F Damp=T
 DIIS: error= 1.01D-02 at cycle   2 NSaved=   2.
 NSaved= 2 IEnMin= 2 EnMin= -971.941408415167     IErMin= 2 ErrMin= 1.01D-02
 ErrMax= 1.01D-02  0.00D+00 EMaxC= 1.00D-01 BMatC= 7.49D-02 BMatP= 6.18D-01
 IDIUse=3 WtCom= 8.99D-01 WtEn= 1.01D-01
 Coeff-Com:  0.319D-01 0.968D+00
 Coeff-En:   0.818D-01 0.918D+00
 Coeff:      0.370D-01 0.963D+00
 Gap=     0.217 Goal=   None    Shift=    0.000
 RMSDP=1.62D-03 MaxDP=1.02D-01 DE=-2.40D-01 OVMax= 2.97D-01

 Cycle   3  Pass 0  IDiag  1:
 RMSU=  1.55D-03    CP:  9.63D-01  8.43D-01
 E= -972.202215725995     Delta-E=       -0.260807310829 Rises=F Damp=F
 DIIS: error= 1.11D-02 at cycle   3 NSaved=   3.
 NSaved= 3 IEnMin= 3 EnMin= -972.202215725995     IErMin= 2 ErrMin= 1.01D-02
 ErrMax= 1.11D-02  0.00D+00 EMaxC= 1.00D-01 BMatC= 5.92D-02 BMatP= 7.49D-02
 IDIUse=3 WtCom= 8.89D-01 WtEn= 1.11D-01
 Coeff-Com: -0.820D-01 0.504D+00 0.578D+00
 Coeff-En:   0.000D+00 0.000D+00 0.100D+01
 Coeff:     -0.729D-01 0.448D+00 0.625D+00
 Gap=     0.202 Goal=   None    Shift=    0.000
 RMSDP=9.53D-04 MaxDP=5.87D-02 DE=-2.61D-01 OVMax= 8.57D-02

 Cycle   4  Pass 0  IDiag  1:
 RMSU=  5.13D-04    CP:  9.66D-01  1.06D+00  6.05D-01
 E= -972.251337455722     Delta-E=       -0.049121729727 Rises=F Damp=F
 DIIS: error= 4.14D-03 at cycle   4 NSaved=   4.
 NSaved= 4 IEnMin= 4 EnMin= -972.251337455722     IErMin= 4 ErrMin= 4.14D-03
 ErrMax= 4.14D-03  0.00D+00 EMaxC= 1.00D-01 BMatC= 7.80D-03 BMatP= 5.92D-02
 IDIUse=3 WtCom= 9.59D-01 WtEn= 4.14D-02
 Coeff-Com: -0.169D-01 0.618D-01 0.291D+00 0.664D+00
 Coeff-En:   0.000D+00 0.000D+00 0.100D+00 0.900D+00
 Coeff:     -0.162D-01 0.592D-01 0.283D+00 0.674D+00
 Gap=     0.203 Goal=   None    Shift=    0.000
 RMSDP=3.08D-04 MaxDP=1.61D-02 DE=-4.91D-02 OVMax= 2.27D-02

 Cycle   5  Pass 0  IDiag  1:
 RMSU=  1.39D-04    CP:  9.65D-01  9.94D-01  7.22D-01  7.31D-01
 E= -972.258402356415     Delta-E=       -0.007064900693 Rises=F Damp=F
 DIIS: error= 5.65D-04 at cycle   5 NSaved=   5.
 NSaved= 5 IEnMin= 5 EnMin= -972.258402356415     IErMin= 5 ErrMin= 5.65D-04
 ErrMax= 5.65D-04  0.00D+00 EMaxC= 1.00D-01 BMatC= 3.91D-04 BMatP= 7.80D-03
 IDIUse=3 WtCom= 9.94D-01 WtEn= 5.65D-03
 Coeff-Com: -0.316D-02 0.361D-02 0.107D+00 0.329D+00 0.563D+00
 Coeff-En:   0.000D+00 0.000D+00 0.000D+00 0.000D+00 0.100D+01
 Coeff:     -0.315D-02 0.359D-02 0.107D+00 0.327D+00 0.565D+00
 Gap=     0.204 Goal=   None    Shift=    0.000
 RMSDP=7.68D-05 MaxDP=3.96D-03 DE=-7.06D-03 OVMax= 5.96D-03

 Cycle   6  Pass 0  IDiag  1:
 RMSU=  4.75D-05    CP:  9.65D-01  1.00D+00  7.22D-01  7.65D-01  6.00D-01
 E= -972.258787792339     Delta-E=       -0.000385435924 Rises=F Damp=F
 DIIS: error= 1.57D-04 at cycle   6 NSaved=   6.
 NSaved= 6 IEnMin= 6 EnMin= -972.258787792339     IErMin= 6 ErrMin= 1.57D-04
 ErrMax= 1.57D-04  0.00D+00 EMaxC= 1.00D-01 BMatC= 1.95D-05 BMatP= 3.91D-04
 IDIUse=3 WtCom= 9.98D-01 WtEn= 1.57D-03
 Coeff-Com:  0.125D-02-0.546D-02 0.739D-02 0.396D-01 0.199D+00 0.759D+00
 Coeff-En:   0.000D+00 0.000D+00 0.000D+00 0.000D+00 0.000D+00 0.100D+01
 Coeff:      0.125D-02-0.545D-02 0.738D-02 0.395D-01 0.198D+00 0.759D+00
 Gap=     0.205 Goal=   None    Shift=    0.000
 RMSDP=2.06D-05 MaxDP=7.95D-04 DE=-3.85D-04 OVMax= 2.09D-03

 Cycle   7  Pass 0  IDiag  1:
 RMSU=  1.32D-05    CP:  9.65D-01  9.99D-01  7.25D-01  7.71D-01  6.98D-01
                    CP:  9.29D-01
 E= -972.258810940743     Delta-E=       -0.000023148404 Rises=F Damp=F
 DIIS: error= 5.75D-05 at cycle   7 NSaved=   7.
 NSaved= 7 IEnMin= 7 EnMin= -972.258810940743     IErMin= 7 ErrMin= 5.75D-05
 ErrMax= 5.75D-05  0.00D+00 EMaxC= 1.00D-01 BMatC= 3.07D-06 BMatP= 1.95D-05
 IDIUse=1 WtCom= 1.00D+00 WtEn= 0.00D+00
 Coeff-Com:  0.106D-02-0.318D-02-0.681D-02-0.160D-01 0.310D-01 0.330D+00
 Coeff-Com:  0.664D+00
 Coeff:      0.106D-02-0.318D-02-0.681D-02-0.160D-01 0.310D-01 0.330D+00
 Coeff:      0.664D+00
 Gap=     0.205 Goal=   None    Shift=    0.000
 RMSDP=7.54D-06 MaxDP=3.09D-04 DE=-2.31D-05 OVMax= 8.76D-04

 Initial convergence to 1.0D-05 achieved.  Increase integral accuracy.
 Cycle   8  Pass 1  IDiag  1:
 E= -972.258778696825     Delta-E=        0.000032243919 Rises=F Damp=F
 DIIS: error= 6.69D-05 at cycle   1 NSaved=   1.
 NSaved= 1 IEnMin= 1 EnMin= -972.258778696825     IErMin= 1 ErrMin= 6.69D-05
 ErrMax= 6.69D-05  0.00D+00 EMaxC= 1.00D-01 BMatC= 1.44D-06 BMatP= 1.44D-06
 IDIUse=1 WtCom= 1.00D+00 WtEn= 0.00D+00
 Coeff-Com:  0.100D+01
 Coeff:      0.100D+01
 Gap=     0.205 Goal=   None    Shift=    0.000
 RMSDP=7.54D-06 MaxDP=3.09D-04 DE= 3.22D-05 OVMax= 5.55D-04

 Cycle   9  Pass 1  IDiag  1:
 RMSU=  4.01D-05    CP:  1.00D+00
 E= -972.258779878059     Delta-E=       -0.000001181234 Rises=F Damp=F
 DIIS: error= 2.88D-05 at cycle   2 NSaved=   2.
 NSaved= 2 IEnMin= 2 EnMin= -972.258779878059     IErMin= 2 ErrMin= 2.88D-05
 ErrMax= 2.88D-05  0.00D+00 EMaxC= 1.00D-01 BMatC= 5.30D-07 BMatP= 1.44D-06
 IDIUse=1 WtCom= 1.00D+00 WtEn= 0.00D+00
 Coeff-Com:  0.325D+00 0.675D+00
 Coeff:      0.325D+00 0.675D+00
 Gap=     0.205 Goal=   None    Shift=    0.000
 RMSDP=3.79D-06 MaxDP=1.24D-04 DE=-1.18D-06 OVMax= 3.71D-04

 Cycle  10  Pass 1  IDiag  1:
 RMSU=  3.74D-06    CP:  1.00D+00  1.01D+00
 E= -972.258780233200     Delta-E=       -0.000000355142 Rises=F Damp=F
 DIIS: error= 1.78D-05 at cycle   3 NSaved=   3.
 NSaved= 3 IEnMin= 3 EnMin= -972.258780233200     IErMin= 3 ErrMin= 1.78D-05
 ErrMax= 1.78D-05  0.00D+00 EMaxC= 1.00D-01 BMatC= 2.64D-07 BMatP= 5.30D-07
 IDIUse=1 WtCom= 1.00D+00 WtEn= 0.00D+00
 Coeff-Com: -0.164D-01 0.410D+00 0.606D+00
 Coeff:     -0.164D-01 0.410D+00 0.606D+00
 Gap=     0.205 Goal=   None    Shift=    0.000
 RMSDP=1.80D-06 MaxDP=9.36D-05 DE=-3.55D-07 OVMax= 1.70D-04

 Cycle  11  Pass 1  IDiag  1:
 RMSU=  1.15D-06    CP:  1.00D+00  1.03D+00  6.75D-01
 E= -972.258780506932     Delta-E=       -0.000000273732 Rises=F Damp=F
 DIIS: error= 5.39D-06 at cycle   4 NSaved=   4.
 NSaved= 4 IEnMin= 4 EnMin= -972.258780506932     IErMin= 4 ErrMin= 5.39D-06
 ErrMax= 5.39D-06  0.00D+00 EMaxC= 1.00D-01 BMatC= 8.64D-09 BMatP= 2.64D-07
 IDIUse=1 WtCom= 1.00D+00 WtEn= 0.00D+00
 Coeff-Com: -0.203D-01 0.149D+00 0.244D+00 0.627D+00
 Coeff:     -0.203D-01 0.149D+00 0.244D+00 0.627D+00
 Gap=     0.205 Goal=   None    Shift=    0.000
 RMSDP=4.92D-07 MaxDP=2.74D-05 DE=-2.74D-07 OVMax= 5.63D-05

 Cycle  12  Pass 1  IDiag  1:
 RMSU=  4.80D-07    CP:  1.00D+00  1.03D+00  6.99D-01  1.04D+00
 E= -972.258780521491     Delta-E=       -0.000000014559 Rises=F Damp=F
 DIIS: error= 1.93D-06 at cycle   5 NSaved=   5.
 NSaved= 5 IEnMin= 5 EnMin= -972.258780521491     IErMin= 5 ErrMin= 1.93D-06
 ErrMax= 1.93D-06  0.00D+00 EMaxC= 1.00D-01 BMatC= 2.49D-09 BMatP= 8.64D-09
 IDIUse=1 WtCom= 1.00D+00 WtEn= 0.00D+00
 Coeff-Com: -0.144D-02-0.815D-01-0.133D+00 0.244D+00 0.972D+00
 Coeff:     -0.144D-02-0.815D-01-0.133D+00 0.244D+00 0.972D+00
 Gap=     0.205 Goal=   None    Shift=    0.000
 RMSDP=4.16D-07 MaxDP=1.65D-05 DE=-1.46D-08 OVMax= 5.99D-05

 Cycle  13  Pass 1  IDiag  1:
 RMSU=  1.87D-07    CP:  1.00D+00  1.03D+00  7.13D-01  1.35D+00  1.18D+00
 E= -972.258780527800     Delta-E=       -0.000000006309 Rises=F Damp=F
 DIIS: error= 9.93D-07 at cycle   6 NSaved=   6.
 NSaved= 6 IEnMin= 6 EnMin= -972.258780527800     IErMin= 6 ErrMin= 9.93D-07
 ErrMax= 9.93D-07  0.00D+00 EMaxC= 1.00D-01 BMatC= 5.00D-10 BMatP= 2.49D-09
 IDIUse=1 WtCom= 1.00D+00 WtEn= 0.00D+00
 Coeff-Com:  0.297D-02-0.687D-01-0.116D+00 0.320D-01 0.521D+00 0.629D+00
 Coeff:      0.297D-02-0.687D-01-0.116D+00 0.320D-01 0.521D+00 0.629D+00
 Gap=     0.205 Goal=   None    Shift=    0.000
 RMSDP=1.33D-07 MaxDP=6.59D-06 DE=-6.31D-09 OVMax= 2.37D-05

 Cycle  14  Pass 1  IDiag  1:
 RMSU=  6.68D-08    CP:  1.00D+00  1.03D+00  7.17D-01  1.42D+00  1.32D+00
                    CP:  8.05D-01
 E= -972.258780528630     Delta-E=       -0.000000000830 Rises=F Damp=F
 DIIS: error= 1.65D-07 at cycle   7 NSaved=   7.
 NSaved= 7 IEnMin= 7 EnMin= -972.258780528630     IErMin= 7 ErrMin= 1.65D-07
 ErrMax= 1.65D-07  0.00D+00 EMaxC= 1.00D-01 BMatC= 3.91D-11 BMatP= 5.00D-10
 IDIUse=1 WtCom= 1.00D+00 WtEn= 0.00D+00
 Coeff-Com:  0.149D-02-0.253D-01-0.441D-01-0.604D-02 0.158D+00 0.293D+00
 Coeff-Com:  0.623D+00
 Coeff:      0.149D-02-0.253D-01-0.441D-01-0.604D-02 0.158D+00 0.293D+00
 Coeff:      0.623D+00
 Gap=     0.205 Goal=   None    Shift=    0.000
 RMSDP=2.77D-08 MaxDP=9.53D-07 DE=-8.30D-10 OVMax= 3.20D-06

 Cycle  15  Pass 1  IDiag  1:
 RMSU=  1.74D-08    CP:  1.00D+00  1.03D+00  7.17D-01  1.44D+00  1.33D+00
                    CP:  8.78D-01  9.69D-01
 E= -972.258780528680     Delta-E=       -0.000000000050 Rises=F Damp=F
 DIIS: error= 5.00D-08 at cycle   8 NSaved=   8.
 NSaved= 8 IEnMin= 8 EnMin= -972.258780528680     IErMin= 8 ErrMin= 5.00D-08
 ErrMax= 5.00D-08  0.00D+00 EMaxC= 1.00D-01 BMatC= 2.25D-12 BMatP= 3.91D-11
 IDIUse=1 WtCom= 1.00D+00 WtEn= 0.00D+00
 Coeff-Com: -0.907D-04 0.484D-02 0.719D-02-0.692D-02-0.416D-01-0.128D-01
 Coeff-Com:  0.144D+00 0.906D+00
 Coeff:     -0.907D-04 0.484D-02 0.719D-02-0.692D-02-0.416D-01-0.128D-01
 Coeff:      0.144D+00 0.906D+00
 Gap=     0.205 Goal=   None    Shift=    0.000
 RMSDP=1.08D-08 MaxDP=3.98D-07 DE=-5.00D-11 OVMax= 1.96D-06

 Cycle  16  Pass 1  IDiag  1:
 RMSU=  6.80D-09    CP:  1.00D+00  1.03D+00  7.17D-01  1.44D+00  1.34D+00
                    CP:  8.95D-01  1.07D+00  1.02D+00
 E= -972.258780528606     Delta-E=        0.000000000075 Rises=F Damp=F
 DIIS: error= 3.67D-08 at cycle   9 NSaved=   9.
 NSaved= 9 IEnMin= 8 EnMin= -972.258780528680     IErMin= 9 ErrMin= 3.67D-08
 ErrMax= 3.67D-08  0.00D+00 EMaxC= 1.00D-01 BMatC= 5.19D-13 BMatP= 2.25D-12
 IDIUse=1 WtCom= 1.00D+00 WtEn= 0.00D+00
 Coeff-Com: -0.159D-03 0.395D-02 0.636D-02-0.290D-02-0.298D-01-0.276D-01
 Coeff-Com: -0.863D-02 0.378D+00 0.681D+00
 Coeff:     -0.159D-03 0.395D-02 0.636D-02-0.290D-02-0.298D-01-0.276D-01
 Coeff:     -0.863D-02 0.378D+00 0.681D+00
 Gap=     0.205 Goal=   None    Shift=    0.000
 RMSDP=3.68D-09 MaxDP=2.01D-07 DE= 7.46D-11 OVMax= 4.81D-07

 SCF Done:  E(RM062X) =  -972.258780529     A.U. after   16 cycles
            NFock= 16  Conv=0.37D-08     -V/T= 2.0080
 KE= 9.645772362357D+02 PE=-5.708814644005D+03 EE= 2.047194693178D+03
 Leave Link  502 at Mon Jun  9 12:50:06 2025, MaxMem=  5368709120 cpu:             989.6 elap:              49.8
 (Enter /opt/software/custom/apps/gaussian/x86_64-legacy/g16/l601.exe)
 Copying SCF densities to generalized density rwf, IOpCl= 0 IROHF=0.

 **********************************************************************

            Population analysis using the SCF Density.

 **********************************************************************

 Orbital symmetries:
       Occupied  (A) (A) (A) (A) (A) (A) (A) (A) (A) (A) (A) (A)
                 (A) (A) (A) (A) (A) (A) (A) (A) (A) (A) (A) (A)
                 (A) (A) (A) (A) (A) (A) (A) (A) (A) (A) (A) (A)
                 (A) (A) (A) (A) (A) (A) (A) (A) (A) (A) (A) (A)
                 (A) (A) (A) (A) (A) (A) (A) (A) (A) (A) (A) (A)
                 (A) (A) (A) (A) (A) (A) (A) (A) (A) (A) (A) (A)
                 (A) (A) (A) (A) (A) (A)
       Virtual   (A) (A) (A) (A) (A) (A) (A) (A) (A) (A) (A) (A)
                 (A) (A) (A) (A) (A) (A) (A) (A) (A) (A) (A) (A)
                 (A) (A) (A) (A) (A) (A) (A) (A) (A) (A) (A) (A)
                 (A) (A) (A) (A) (A) (A) (A) (A) (A) (A) (A) (A)
                 (A) (A) (A) (A) (A) (A) (A) (A) (A) (A) (A) (A)
                 (A) (A) (A) (A) (A) (A) (A) (A) (A) (A) (A) (A)
                 (A) (A) (A) (A) (A) (A) (A) (A) (A) (A) (A) (A)
                 (A) (A) (A) (A) (A) (A) (A) (A) (A) (A) (A) (A)
                 (A) (A) (A) (A) (A) (A) (A) (A) (A) (A) (A) (A)
                 (A) (A) (A) (A) (A) (A) (A) (A) (A) (A) (A) (A)
                 (A) (A) (A) (A) (A) (A) (A) (A) (A) (A) (A) (A)
                 (A) (A) (A) (A) (A) (A) (A) (A) (A) (A) (A) (A)
                 (A) (A) (A) (A) (A) (A) (A) (A) (A) (A) (A) (A)
                 (A) (A) (A) (A) (A) (A) (A) (A) (A) (A) (A) (A)
                 (A) (A) (A) (A) (A) (A) (A) (A) (A) (A) (A) (A)
                 (A) (A) (A) (A) (A) (A) (A) (A) (A) (A) (A) (A)
                 (A) (A) (A) (A) (A) (A) (A) (A) (A) (A) (A) (A)
                 (A) (A) (A) (A) (A) (A) (A) (A) (A) (A) (A) (A)
                 (A) (A) (A) (A) (A) (A) (A) (A) (A) (A) (A) (A)
                 (A) (A) (A) (A) (A) (A) (A) (A) (A) (A) (A) (A)
                 (A) (A) (A) (A) (A) (A) (A) (A) (A) (A) (A) (A)
                 (A) (A) (A) (A) (A) (A) (A) (A) (A) (A) (A) (A)
                 (A) (A) (A) (A) (A) (A) (A) (A) (A) (A) (A) (A)
                 (A) (A) (A) (A) (A) (A) (A) (A) (A) (A)
 The electronic state is 1-A.
 Alpha  occ. eigenvalues --  -19.67860 -19.65409 -14.88723 -14.85287 -14.70456
 Alpha  occ. eigenvalues --  -10.62571 -10.62151 -10.61348 -10.61099 -10.60320
 Alpha  occ. eigenvalues --  -10.59277 -10.59194 -10.57658 -10.57623 -10.57595
 Alpha  occ. eigenvalues --  -10.56506 -10.56115 -10.55060 -10.54999 -10.53737
 Alpha  occ. eigenvalues --  -10.53148 -10.52530  -1.20881  -1.20124  -1.17217
 Alpha  occ. eigenvalues --   -1.08636  -0.98385  -0.95102  -0.93020  -0.92115
 Alpha  occ. eigenvalues --   -0.88075  -0.84297  -0.83135  -0.81434  -0.80163
 Alpha  occ. eigenvalues --   -0.78398  -0.77799  -0.73054  -0.70418  -0.68196
 Alpha  occ. eigenvalues --   -0.67770  -0.66259  -0.62823  -0.61712  -0.60299
 Alpha  occ. eigenvalues --   -0.58439  -0.58193  -0.55945  -0.55731  -0.54107
 Alpha  occ. eigenvalues --   -0.53774  -0.53304  -0.52944  -0.50695  -0.50383
 Alpha  occ. eigenvalues --   -0.49899  -0.49665  -0.49334  -0.48182  -0.48006
 Alpha  occ. eigenvalues --   -0.47372  -0.46327  -0.45875  -0.45237  -0.43535
 Alpha  occ. eigenvalues --   -0.43239  -0.42874  -0.42324  -0.38413  -0.37979
 Alpha  occ. eigenvalues --   -0.37619  -0.36581  -0.34897  -0.32147  -0.30013
 Alpha  occ. eigenvalues --   -0.28413  -0.24513  -0.21238
 Alpha virt. eigenvalues --   -0.00757   0.01723   0.06384   0.08918   0.09518
 Alpha virt. eigenvalues --    0.11549   0.13905   0.14863   0.15060   0.15949
 Alpha virt. eigenvalues --    0.16498   0.16955   0.17717   0.17969   0.18350
 Alpha virt. eigenvalues --    0.19171   0.19685   0.19980   0.20733   0.20883
 Alpha virt. eigenvalues --    0.21534   0.22098   0.22912   0.23368   0.23884
 Alpha virt. eigenvalues --    0.24343   0.25830   0.26029   0.27504   0.28248
 Alpha virt. eigenvalues --    0.29437   0.30237   0.31854   0.33355   0.34814
 Alpha virt. eigenvalues --    0.35430   0.35687   0.37771   0.40437   0.41604
 Alpha virt. eigenvalues --    0.42826   0.44420   0.46122   0.48001   0.49454
 Alpha virt. eigenvalues --    0.51072   0.51940   0.53558   0.54500   0.54597
 Alpha virt. eigenvalues --    0.55041   0.55735   0.57300   0.57408   0.57677
 Alpha virt. eigenvalues --    0.58072   0.58824   0.59276   0.60009   0.60228
 Alpha virt. eigenvalues --    0.60617   0.62159   0.62852   0.64217   0.64698
 Alpha virt. eigenvalues --    0.65560   0.65916   0.66198   0.66593   0.67050
 Alpha virt. eigenvalues --    0.67390   0.69558   0.70520   0.71649   0.72321
 Alpha virt. eigenvalues --    0.73552   0.74180   0.74741   0.75582   0.77261
 Alpha virt. eigenvalues --    0.77850   0.78306   0.78850   0.80158   0.80700
 Alpha virt. eigenvalues --    0.80955   0.82541   0.82977   0.83556   0.85646
 Alpha virt. eigenvalues --    0.86450   0.88320   0.90370   0.90709   0.91455
 Alpha virt. eigenvalues --    0.91972   0.92113   0.93430   0.93760   0.94236
 Alpha virt. eigenvalues --    0.94474   0.95635   0.95826   0.96413   0.96744
 Alpha virt. eigenvalues --    0.97514   0.98265   0.98666   0.98822   0.99608
 Alpha virt. eigenvalues --    0.99980   1.01410   1.02227   1.03898   1.04649
 Alpha virt. eigenvalues --    1.05291   1.05781   1.07188   1.08827   1.09801
 Alpha virt. eigenvalues --    1.12876   1.13584   1.14047   1.15206   1.17659
 Alpha virt. eigenvalues --    1.18568   1.19340   1.21296   1.22312   1.23459
 Alpha virt. eigenvalues --    1.24328   1.25668   1.27801   1.28285   1.30479
 Alpha virt. eigenvalues --    1.31764   1.33086   1.33733   1.35271   1.37152
 Alpha virt. eigenvalues --    1.38551   1.38981   1.39843   1.41396   1.42423
 Alpha virt. eigenvalues --    1.42975   1.43527   1.45590   1.46341   1.47885
 Alpha virt. eigenvalues --    1.48956   1.49824   1.51511   1.51778   1.52718
 Alpha virt. eigenvalues --    1.53749   1.55264   1.56597   1.59055   1.59331
 Alpha virt. eigenvalues --    1.59850   1.63024   1.64958   1.73794   1.74783
 Alpha virt. eigenvalues --    1.76159   1.76632   1.78043   1.78838   1.80173
 Alpha virt. eigenvalues --    1.82612   1.84196   1.84750   1.86918   1.87269
 Alpha virt. eigenvalues --    1.88646   1.89206   1.90637   1.93550   1.93809
 Alpha virt. eigenvalues --    1.94589   1.95114   1.97506   1.99169   1.99766
 Alpha virt. eigenvalues --    2.01028   2.02212   2.02695   2.05369   2.06031
 Alpha virt. eigenvalues --    2.07306   2.07542   2.08354   2.09257   2.10080
 Alpha virt. eigenvalues --    2.11231   2.11620   2.13649   2.13779   2.16977
 Alpha virt. eigenvalues --    2.17964   2.19473   2.19952   2.20117   2.21817
 Alpha virt. eigenvalues --    2.23969   2.24815   2.24979   2.25961   2.27084
 Alpha virt. eigenvalues --    2.28861   2.29477   2.29815   2.30831   2.31941
 Alpha virt. eigenvalues --    2.31998   2.34356   2.35356   2.36130   2.36996
 Alpha virt. eigenvalues --    2.38702   2.38882   2.41043   2.42034   2.43643
 Alpha virt. eigenvalues --    2.44873   2.45085   2.46466   2.48756   2.52606
 Alpha virt. eigenvalues --    2.57793   2.57994   2.59251   2.60050   2.63919
 Alpha virt. eigenvalues --    2.64323   2.65360   2.69887   2.70901   2.73075
 Alpha virt. eigenvalues --    2.73193   2.74682   2.77801   2.78042   2.78568
 Alpha virt. eigenvalues --    2.79390   2.82695   2.84911   2.86330   2.89373
 Alpha virt. eigenvalues --    2.90000   2.92848   2.99508   3.01590   3.02930
 Alpha virt. eigenvalues --    3.07308   3.12104   3.17736   3.22857   3.24715
 Alpha virt. eigenvalues --    3.30447   3.44007   3.51711   3.54236   3.95375
 Alpha virt. eigenvalues --    4.08954   4.09597   4.15226   4.15687   4.17185
 Alpha virt. eigenvalues --    4.17981   4.23524   4.27002   4.31538   4.33045
 Alpha virt. eigenvalues --    4.35799   4.39407   4.41092   4.44464   4.48279
 Alpha virt. eigenvalues --    4.50712   4.59349   4.65042   4.70921   4.82802
 Alpha virt. eigenvalues --    4.92435
          Condensed to atoms (all electrons):
               1          2          3          4          5          6
     1  C    4.932374   0.232137  -0.036182  -0.003410   0.000852  -0.000180
     2  O    0.232137   8.301049   0.269205  -0.074578  -0.016519   0.003919
     3  C   -0.036182   0.269205   4.686118   0.536549  -0.049353   0.005579
     4  C   -0.003410  -0.074578   0.536549   5.009436   0.357657   0.417577
     5  C    0.000852  -0.016519  -0.049353   0.357657   5.189399  -0.066591
     6  C   -0.000180   0.003919   0.005579   0.417577  -0.066591   4.684273
     7  C    0.000005  -0.000048   0.006356  -0.077693  -0.010098   0.535557
     8  C   -0.000000   0.000001  -0.000246  -0.000302   0.000211   0.005987
     9  N   -0.000000   0.000000   0.000003  -0.000204  -0.000001  -0.000839
    10  C    0.000000   0.000000   0.000000  -0.000007   0.000000  -0.000553
    11  C    0.000000  -0.000000   0.000000  -0.000000   0.000000   0.000009
    12  C   -0.000000  -0.000000  -0.000000   0.000000   0.000000   0.000000
    13  C   -0.000000   0.000000   0.000000  -0.000000   0.000000  -0.000001
    14  C   -0.000000   0.000000   0.000001  -0.000001  -0.000000  -0.000128
    15  C    0.000000  -0.000000  -0.000008   0.000049   0.000000   0.005389
    16  N   -0.000000   0.000001   0.000834   0.007800  -0.000119  -0.093044
    17  N   -0.000006   0.000031  -0.049189  -0.007330   0.004926   0.246896
    18  C    0.000098   0.004857  -0.020891  -0.057138   0.000220  -0.050513
    19  C   -0.005352  -0.083272   0.414719  -0.063787   0.009005  -0.026667
    20  C   -0.011003   0.001624  -0.042265   0.008935  -0.000192   0.000526
    21  O    0.000000   0.000000   0.000000  -0.000000  -0.000000   0.000000
    22  C    0.000000   0.000000  -0.000000   0.000000  -0.000000   0.000000
    23  H    0.377288  -0.041475   0.003453   0.003453   0.000545  -0.000267
    24  H    0.371438  -0.044627  -0.005580  -0.000392   0.000001   0.000064
    25  H    0.389452  -0.027592   0.002862  -0.000101  -0.000013   0.000005
    26  H   -0.001069   0.012959  -0.009370  -0.033324   0.379620   0.004150
    27  H   -0.000050   0.000351   0.000671  -0.030794   0.371637  -0.004352
    28  H    0.000217   0.000547  -0.000183  -0.029840   0.368377  -0.001761
    29  H    0.000000   0.000000   0.000003  -0.005671   0.002584  -0.032377
    30  H   -0.000000  -0.000000   0.000000   0.000000  -0.000000  -0.000000
    31  H   -0.000000   0.000000  -0.000000   0.000000  -0.000000  -0.000000
    32  H   -0.000000  -0.000000  -0.000000   0.000001  -0.000000  -0.000019
    33  H   -0.000006  -0.000066   0.002883   0.000703   0.000014   0.002171
    34  H    0.000378   0.000221   0.003998  -0.000103   0.000002  -0.000010
    35  H   -0.000273   0.003207  -0.003986   0.000143   0.000004  -0.000009
    36  H   -0.010595   0.000708  -0.003973  -0.000200   0.000002   0.000016
    37  H    0.000000   0.000000   0.000000  -0.000000   0.000000  -0.000000
    38  H   -0.000000  -0.000000   0.000000   0.000000   0.000000  -0.000000
    39  H    0.000000   0.000000  -0.000000   0.000000  -0.000000   0.000000
               7          8          9         10         11         12
     1  C    0.000005  -0.000000  -0.000000   0.000000   0.000000  -0.000000
     2  O   -0.000048   0.000001   0.000000   0.000000  -0.000000  -0.000000
     3  C    0.006356  -0.000246   0.000003   0.000000   0.000000  -0.000000
     4  C   -0.077693  -0.000302  -0.000204  -0.000007  -0.000000   0.000000
     5  C   -0.010098   0.000211  -0.000001   0.000000   0.000000   0.000000
     6  C    0.535557   0.005987  -0.000839  -0.000553   0.000009   0.000000
     7  C    5.213459   0.474925  -0.061495   0.002712  -0.000293   0.000002
     8  C    0.474925   4.416810   0.520013  -0.080132   0.001061  -0.000050
     9  N   -0.061495   0.520013   7.057564   0.410164  -0.065198   0.003846
    10  C    0.002712  -0.080132   0.410164   4.576612   0.509700   0.008888
    11  C   -0.000293   0.001061  -0.065198   0.509700   5.090626   0.556628
    12  C    0.000002  -0.000050   0.003846   0.008888   0.556628   4.492083
    13  C    0.000004   0.000100  -0.000128  -0.038223  -0.069765   0.481983
    14  C   -0.000423   0.004417   0.016563  -0.037065  -0.045533  -0.008121
    15  C    0.008450  -0.081799  -0.106763   0.475737  -0.051657  -0.042391
    16  N   -0.051927   0.276943  -0.136270  -0.028638   0.009288  -0.000214
    17  N   -0.063877  -0.073445   0.010928   0.006358  -0.000082  -0.000006
    18  C    0.006754   0.004484  -0.000051  -0.000096   0.000002   0.000000
    19  C    0.000806  -0.000286  -0.000000  -0.000003   0.000000   0.000000
    20  C    0.000003   0.000003  -0.000000   0.000000  -0.000000  -0.000000
    21  O   -0.000000   0.000000  -0.000017   0.001334  -0.047305   0.266028
    22  C    0.000000  -0.000000   0.000001  -0.000035   0.003302  -0.051966
    23  H   -0.000001  -0.000000   0.000000  -0.000000  -0.000000   0.000000
    24  H   -0.000000   0.000000   0.000000  -0.000000  -0.000000   0.000000
    25  H   -0.000000   0.000000   0.000000   0.000000  -0.000000   0.000000
    26  H    0.000026  -0.000002  -0.000000   0.000000  -0.000000  -0.000000
    27  H    0.004160   0.000004  -0.000001  -0.000000   0.000000  -0.000000
    28  H    0.003047  -0.000017  -0.000000  -0.000000   0.000000  -0.000000
    29  H    0.367851  -0.023685  -0.000569   0.000108   0.000001  -0.000000
    30  H    0.000003   0.000244  -0.001426  -0.032202   0.348174  -0.039408
    31  H   -0.000000   0.000001   0.000003   0.000997   0.003583  -0.039979
    32  H    0.000015  -0.000198  -0.000255   0.003862   0.000681   0.002568
    33  H   -0.000357  -0.000021   0.000001   0.000025  -0.000000   0.000000
    34  H   -0.000000   0.000000  -0.000000  -0.000000   0.000000  -0.000000
    35  H   -0.000000  -0.000000   0.000000  -0.000000  -0.000000  -0.000000
    36  H   -0.000000  -0.000000   0.000000  -0.000000  -0.000000  -0.000000
    37  H    0.000000   0.000000   0.000000   0.000003  -0.000032  -0.004352
    38  H    0.000000   0.000000   0.000000   0.000003  -0.000031  -0.004359
    39  H   -0.000000  -0.000000  -0.000000   0.000001  -0.000038   0.002897
              13         14         15         16         17         18
     1  C   -0.000000  -0.000000   0.000000  -0.000000  -0.000006   0.000098
     2  O    0.000000   0.000000  -0.000000   0.000001   0.000031   0.004857
     3  C    0.000000   0.000001  -0.000008   0.000834  -0.049189  -0.020891
     4  C   -0.000000  -0.000001   0.000049   0.007800  -0.007330  -0.057138
     5  C    0.000000  -0.000000   0.000000  -0.000119   0.004926   0.000220
     6  C   -0.000001  -0.000128   0.005389  -0.093044   0.246896  -0.050513
     7  C    0.000004  -0.000423   0.008450  -0.051927  -0.063877   0.006754
     8  C    0.000100   0.004417  -0.081799   0.276943  -0.073445   0.004484
     9  N   -0.000128   0.016563  -0.106763  -0.136270   0.010928  -0.000051
    10  C   -0.038223  -0.037065   0.475737  -0.028638   0.006358  -0.000096
    11  C   -0.069765  -0.045533  -0.051657   0.009288  -0.000082   0.000002
    12  C    0.481983  -0.008121  -0.042391  -0.000214  -0.000006   0.000000
    13  C    5.117154   0.500773  -0.010682   0.005723   0.000036   0.000002
    14  C    0.500773   5.019831   0.473035  -0.079071  -0.000168   0.000960
    15  C   -0.010682   0.473035   4.836954   0.220776  -0.039715  -0.000071
    16  N    0.005723  -0.079071   0.220776   7.241238   0.166365  -0.041533
    17  N    0.000036  -0.000168  -0.039715   0.166365   7.000208   0.311674
    18  C    0.000002   0.000960  -0.000071  -0.041533   0.311674   4.874723
    19  C   -0.000000   0.000050   0.000221   0.002511  -0.006460   0.613484
    20  C   -0.000000  -0.000001   0.000001  -0.000105   0.004001  -0.051000
    21  O   -0.066990   0.004949   0.000347   0.000000  -0.000000  -0.000000
    22  C   -0.010263   0.000513  -0.000018  -0.000000  -0.000000   0.000000
    23  H    0.000000  -0.000000  -0.000000   0.000000  -0.000001  -0.000029
    24  H    0.000000  -0.000000   0.000000  -0.000000  -0.000005  -0.000479
    25  H    0.000000   0.000000  -0.000000   0.000000  -0.000000   0.000008
    26  H    0.000000   0.000000  -0.000000   0.000001  -0.000060  -0.000030
    27  H   -0.000000   0.000000   0.000000   0.000001  -0.000105   0.000008
    28  H   -0.000000   0.000000   0.000000   0.000002  -0.000130   0.000038
    29  H   -0.000000  -0.000000  -0.000137   0.005332   0.004345  -0.000118
    30  H    0.007282  -0.000538   0.006987  -0.000030   0.000001  -0.000000
    31  H    0.363211  -0.031583   0.002153  -0.000093  -0.000000   0.000000
    32  H   -0.032509   0.347689  -0.032210  -0.006488   0.000467   0.000044
    33  H    0.000016   0.000456   0.000622  -0.001821  -0.037866   0.355090
    34  H   -0.000000  -0.000001   0.000001  -0.000003   0.000206  -0.003583
    35  H    0.000000   0.000000  -0.000000   0.000001  -0.000037  -0.000025
    36  H    0.000000   0.000000  -0.000000   0.000001  -0.000041  -0.000781
    37  H    0.002529  -0.000185  -0.000008   0.000000   0.000000  -0.000000
    38  H    0.002518  -0.000186  -0.000009   0.000000   0.000000  -0.000000
    39  H    0.000714   0.000002  -0.000000  -0.000000  -0.000000   0.000000
              19         20         21         22         23         24
     1  C   -0.005352  -0.011003   0.000000   0.000000   0.377288   0.371438
[...]
    37  H    0.000000   0.000000   0.000000   0.000010  -0.000009  -0.004029
    38  H    0.000000   0.000000  -0.000000   0.000009  -0.000009  -0.004042
    39  H   -0.000000  -0.000000  -0.000000   0.000000  -0.000074   0.003365
              13         14         15         16         17         18
     1  C   -0.000000  -0.000000   0.000000   0.000000   0.000007  -0.000089
     2  O   -0.000000   0.000000  -0.000000   0.000000  -0.000005   0.004948
     3  C    0.000000  -0.000000  -0.000015   0.001359  -0.050926  -0.023604
     4  C   -0.000000   0.000004   0.000065   0.008583  -0.002253  -0.054031
     5  C    0.000000  -0.000000   0.000001  -0.000175   0.005062   0.000038
     6  C    0.000000  -0.000093   0.006941  -0.092831   0.248919  -0.040804
     7  C    0.000003  -0.000319   0.008560  -0.054743  -0.063132   0.005658
     8  C    0.000096   0.004044  -0.087887   0.295017  -0.072625   0.004744
     9  N   -0.000047   0.009641  -0.100310  -0.109435   0.010377  -0.000074
    10  C   -0.031930  -0.041488   0.440044  -0.029818   0.010941  -0.000210
    11  C   -0.067412  -0.037699  -0.058616   0.009769  -0.000119   0.000005
    12  C    0.486809  -0.013333  -0.037500  -0.000047  -0.000010  -0.000000
    13  C    5.102789   0.493114  -0.010383   0.005692   0.000045   0.000031
    14  C    0.493114   4.991220   0.501644  -0.078426  -0.001777   0.001111
    15  C   -0.010383   0.501644   4.846396   0.218427  -0.055168   0.000338
    16  N    0.005692  -0.078426   0.218427   7.244754   0.154088  -0.049407
    17  N    0.000045  -0.001777  -0.055168   0.154088   7.001373   0.307221
    18  C    0.000031   0.001111   0.000338  -0.049407   0.307221   4.907337
    19  C   -0.000001   0.000111   0.000330   0.003226  -0.005001   0.591816
    20  C   -0.000000  -0.000003   0.000003  -0.000130   0.003746  -0.056506
    21  O   -0.063549   0.004175   0.000278  -0.000000  -0.000000   0.000000
    22  C   -0.007290   0.000206  -0.000004  -0.000000   0.000000   0.000000
    23  H    0.000000  -0.000000  -0.000000   0.000000   0.000001  -0.000003
    24  H    0.000000  -0.000000  -0.000000   0.000000  -0.000012  -0.000350
    25  H    0.000000  -0.000000  -0.000000   0.000000  -0.000000   0.000009
    26  H    0.000000   0.000000  -0.000000   0.000002  -0.000065  -0.000021
    27  H   -0.000000  -0.000000   0.000000   0.000001  -0.000073   0.000012
    28  H   -0.000000  -0.000000   0.000000   0.000003  -0.000122   0.000032
    29  H   -0.000000   0.000000  -0.000128   0.004837   0.004018  -0.000091
    30  H    0.006250  -0.000283   0.006302  -0.000057   0.000001  -0.000000
    31  H    0.362425  -0.032639   0.001987  -0.000100  -0.000000   0.000001
    32  H   -0.030562   0.352046  -0.033393  -0.005602   0.000534  -0.001031
    33  H    0.000058   0.001527   0.000941  -0.002580  -0.041882   0.354323
    34  H   -0.000000  -0.000002   0.000002  -0.000002   0.000188  -0.003481
    35  H    0.000000   0.000000  -0.000000   0.000001  -0.000038   0.000094
    36  H    0.000000   0.000000  -0.000000   0.000001  -0.000039   0.000537
    37  H    0.003570  -0.000176  -0.000006   0.000000   0.000000  -0.000000
    38  H    0.003569  -0.000176  -0.000005   0.000000   0.000000  -0.000000
    39  H    0.000345   0.000004  -0.000000  -0.000000  -0.000000   0.000000
              19         20         21         22         23         24
     1  C   -0.002216  -0.001619   0.000000  -0.000000   0.375632   0.373980
     2  O   -0.087596   0.002121   0.000000   0.000000  -0.041157  -0.040620
     3  C    0.431217  -0.039639   0.000000  -0.000000  -0.001478  -0.001807
     4  C   -0.064674   0.008270  -0.000000   0.000000   0.004299   0.000529
     5  C    0.007831  -0.000133  -0.000000  -0.000000   0.002166   0.000121
     6  C   -0.023097   0.000324   0.000000   0.000000  -0.000548   0.000074
     7  C    0.000493   0.000006  -0.000000   0.000000   0.000005  -0.000001
     8  C   -0.000191   0.000003  -0.000000  -0.000000  -0.000000   0.000000
     9  N    0.000000  -0.000000  -0.000021   0.000001   0.000000   0.000000
    10  C   -0.000005   0.000000   0.001668  -0.000060   0.000000  -0.000000
    11  C    0.000000  -0.000000  -0.051801   0.004079   0.000000  -0.000000
    12  C    0.000000   0.000000   0.262418  -0.049358  -0.000000   0.000000
    13  C   -0.000001  -0.000000  -0.063549  -0.007290   0.000000   0.000000
    14  C    0.000111  -0.000003   0.004175   0.000206  -0.000000  -0.000000
    15  C    0.000330   0.000003   0.000278  -0.000004  -0.000000  -0.000000
    16  N    0.003226  -0.000130  -0.000000  -0.000000   0.000000   0.000000
    17  N   -0.005001   0.003746  -0.000000   0.000000   0.000001  -0.000012
    18  C    0.591816  -0.056506   0.000000   0.000000  -0.000003  -0.000350
    19  C    4.891136   0.343225  -0.000000   0.000000  -0.001150   0.005593
    20  C    0.343225   5.151396   0.000000  -0.000000   0.000370  -0.001486
    21  O   -0.000000   0.000000   8.264520   0.237317  -0.000000  -0.000000
    22  C    0.000000  -0.000000   0.237317   4.907523  -0.000000  -0.000000
    23  H   -0.001150   0.000370  -0.000000  -0.000000   0.574409  -0.043508
    24  H    0.005593  -0.001486  -0.000000  -0.000000  -0.043508   0.574180
    25  H   -0.000004  -0.000099   0.000000   0.000000  -0.029462  -0.028583
    26  H    0.000471  -0.000006   0.000000   0.000000  -0.002207   0.000338
    27  H   -0.000097   0.000002   0.000000   0.000000   0.000072  -0.000002
    28  H   -0.000191   0.000001  -0.000000   0.000000   0.000201  -0.000008
    29  H    0.000001   0.000000  -0.000000   0.000000  -0.000000   0.000000
    30  H   -0.000000  -0.000000  -0.000721  -0.000114   0.000000   0.000000
    31  H    0.000000   0.000000  -0.007574   0.006111  -0.000000   0.000000
    32  H    0.000137  -0.000006  -0.000046  -0.000003   0.000000  -0.000000
    33  H   -0.018685  -0.003638  -0.000000   0.000000  -0.000001   0.000009
    34  H   -0.034920   0.375495   0.000000  -0.000000   0.000002  -0.000058
    35  H   -0.029917   0.378240   0.000000  -0.000000   0.000009   0.000017
    36  H   -0.029087   0.371182   0.000000  -0.000000  -0.000006   0.002159
    37  H   -0.000000  -0.000000  -0.037731   0.372195  -0.000000  -0.000000
    38  H    0.000000  -0.000000  -0.037760   0.372127   0.000000   0.000000
    39  H    0.000000  -0.000000  -0.033889   0.392776   0.000000   0.000000
              25         26         27         28         29         30
     1  C    0.387610  -0.002259   0.000019   0.000183   0.000000  -0.000000
     2  O   -0.031193   0.011319   0.000199   0.000325   0.000000  -0.000000
     3  C    0.004279  -0.006977   0.001380  -0.001155  -0.000025   0.000000
     4  C   -0.000072  -0.034365  -0.029866  -0.027408  -0.005003   0.000000
     5  C   -0.000069   0.378380   0.371612   0.368799   0.002370  -0.000000
     6  C    0.000007   0.004329  -0.004898  -0.002183  -0.031323  -0.000000
     7  C   -0.000000   0.000008   0.004519   0.002549   0.368209   0.000003
     8  C    0.000000  -0.000002   0.000031  -0.000019  -0.022285   0.000302
     9  N    0.000000  -0.000000  -0.000001  -0.000000  -0.000675  -0.001442
    10  C   -0.000000   0.000000   0.000000  -0.000000   0.000100  -0.027705
    11  C   -0.000000  -0.000000   0.000000   0.000000   0.000002   0.347325
    12  C    0.000000  -0.000000  -0.000000  -0.000000  -0.000000  -0.036842
    13  C    0.000000   0.000000  -0.000000  -0.000000  -0.000000   0.006250
    14  C   -0.000000   0.000000  -0.000000  -0.000000   0.000000  -0.000283
    15  C   -0.000000  -0.000000   0.000000   0.000000  -0.000128   0.006302
    16  N    0.000000   0.000002   0.000001   0.000003   0.004837  -0.000057
    17  N   -0.000000  -0.000065  -0.000073  -0.000122   0.004018   0.000001
    18  C    0.000009  -0.000021   0.000012   0.000032  -0.000091  -0.000000
    19  C   -0.000004   0.000471  -0.000097  -0.000191   0.000001  -0.000000
    20  C   -0.000099  -0.000006   0.000002   0.000001   0.000000  -0.000000
    21  O    0.000000   0.000000   0.000000  -0.000000  -0.000000  -0.000721
    22  C    0.000000   0.000000   0.000000   0.000000   0.000000  -0.000114
    23  H   -0.029462  -0.002207   0.000072   0.000201  -0.000000   0.000000
    24  H   -0.028583   0.000338  -0.000002  -0.000008   0.000000   0.000000
    25  H    0.509197   0.000038   0.000003  -0.000027  -0.000000  -0.000000
    26  H    0.000038   0.502401  -0.021430  -0.024897  -0.000000   0.000000
    27  H    0.000003  -0.021430   0.517769  -0.030922   0.000738   0.000000
    28  H   -0.000027  -0.024897  -0.030922   0.528531   0.000286   0.000000
    29  H   -0.000000  -0.000000   0.000738   0.000286   0.489402   0.000000
    30  H   -0.000000   0.000000   0.000000   0.000000   0.000000   0.524471
    31  H    0.000000   0.000000   0.000000   0.000000   0.000000  -0.000118
    32  H   -0.000000   0.000000  -0.000000  -0.000000   0.000000   0.000014
    33  H   -0.000000   0.000000  -0.000000  -0.000000   0.000002   0.000000
    34  H   -0.000002   0.000000  -0.000000  -0.000000  -0.000000  -0.000000
    35  H   -0.000001  -0.000001  -0.000000   0.000000   0.000000   0.000000
    36  H   -0.000013  -0.000000   0.000000  -0.000000   0.000000   0.000000
    37  H    0.000000   0.000000  -0.000000   0.000000   0.000000   0.000021
    38  H    0.000000  -0.000000   0.000000  -0.000000  -0.000000   0.000021
    39  H    0.000000   0.000000  -0.000000   0.000000  -0.000000  -0.000023
              31         32         33         34         35         36
     1  C   -0.000000  -0.000000  -0.000000  -0.000006  -0.000204   0.001286
     2  O   -0.000000  -0.000000  -0.000056   0.000403   0.002385   0.000190
     3  C   -0.000000  -0.000000   0.002317   0.004145  -0.004732  -0.005608
     4  C    0.000000   0.000001   0.000564  -0.000057   0.000001  -0.000136
     5  C   -0.000000  -0.000000   0.000013   0.000001   0.000001   0.000001
     6  C   -0.000000  -0.000027   0.002183  -0.000012   0.000007   0.000005
     7  C   -0.000000   0.000012  -0.000354  -0.000000  -0.000000  -0.000000
     8  C    0.000001  -0.000184  -0.000016   0.000000  -0.000000  -0.000000
     9  N    0.000003  -0.000133   0.000001  -0.000000   0.000000   0.000000
    10  C    0.000960   0.002780   0.000091   0.000000  -0.000000   0.000000
    11  C    0.003209   0.000471   0.000001   0.000000  -0.000000  -0.000000
    12  C   -0.036784   0.002219  -0.000001   0.000000  -0.000000  -0.000000
    13  C    0.362425  -0.030562   0.000058  -0.000000   0.000000   0.000000
    14  C   -0.032639   0.352046   0.001527  -0.000002   0.000000   0.000000
    15  C    0.001987  -0.033393   0.000941   0.000002  -0.000000  -0.000000
    16  N   -0.000100  -0.005602  -0.002580  -0.000002   0.000001   0.000001
    17  N   -0.000000   0.000534  -0.041882   0.000188  -0.000038  -0.000039
    18  C    0.000001  -0.001031   0.354323  -0.003481   0.000094   0.000537
    19  C    0.000000   0.000137  -0.018685  -0.034920  -0.029917  -0.029087
    20  C    0.000000  -0.000006  -0.003638   0.375495   0.378240   0.371182
    21  O   -0.007574  -0.000046  -0.000000   0.000000   0.000000   0.000000
    22  C    0.006111  -0.000003   0.000000  -0.000000  -0.000000  -0.000000
    23  H   -0.000000   0.000000  -0.000001   0.000002   0.000009  -0.000006
    24  H    0.000000  -0.000000   0.000009  -0.000058   0.000017   0.002159
    25  H    0.000000  -0.000000  -0.000000  -0.000002  -0.000001  -0.000013
    26  H    0.000000   0.000000   0.000000   0.000000  -0.000001  -0.000000
    27  H    0.000000  -0.000000  -0.000000  -0.000000  -0.000000   0.000000
    28  H    0.000000  -0.000000  -0.000000  -0.000000   0.000000  -0.000000
    29  H    0.000000   0.000000   0.000002  -0.000000   0.000000   0.000000
    30  H   -0.000118   0.000014   0.000000  -0.000000   0.000000   0.000000
    31  H    0.548431  -0.004275  -0.000003   0.000000  -0.000000  -0.000000
    32  H   -0.004275   0.551259   0.003940  -0.000003  -0.000000  -0.000000
    33  H   -0.000003   0.003940   0.478963   0.004387   0.000015   0.000059
    34  H    0.000000  -0.000003   0.004387   0.534554  -0.024072  -0.026284
    35  H   -0.000000  -0.000000   0.000015  -0.024072   0.511221  -0.031781
    36  H   -0.000000  -0.000000   0.000059  -0.026284  -0.031781   0.541397
    37  H    0.001168   0.000002   0.000000  -0.000000   0.000000  -0.000000
    38  H    0.001184   0.000001   0.000000   0.000000  -0.000000   0.000000
    39  H   -0.000031  -0.000000  -0.000000   0.000000  -0.000000  -0.000000
              37         38         39
     1  C    0.000000  -0.000000   0.000000
     2  O    0.000000  -0.000000   0.000000
     3  C    0.000000   0.000000  -0.000000
     4  C   -0.000000  -0.000000   0.000000
     5  C    0.000000   0.000000  -0.000000
     6  C   -0.000000  -0.000000   0.000000
     7  C    0.000000   0.000000  -0.000000
     8  C    0.000000   0.000000  -0.000000
     9  N    0.000000  -0.000000  -0.000000
    10  C    0.000010   0.000009   0.000000
    11  C   -0.000009  -0.000009  -0.000074
    12  C   -0.004029  -0.004042   0.003365
    13  C    0.003570   0.003569   0.000345
    14  C   -0.000176  -0.000176   0.000004
    15  C   -0.000006  -0.000005  -0.000000
    16  N    0.000000   0.000000  -0.000000
    17  N    0.000000   0.000000  -0.000000
    18  C   -0.000000  -0.000000   0.000000
    19  C   -0.000000   0.000000   0.000000
    20  C   -0.000000  -0.000000  -0.000000
    21  O   -0.037731  -0.037760  -0.033889
    22  C    0.372195   0.372127   0.392776
    23  H   -0.000000   0.000000   0.000000
    24  H   -0.000000   0.000000   0.000000
    25  H    0.000000   0.000000   0.000000
    26  H    0.000000  -0.000000   0.000000
    27  H   -0.000000   0.000000  -0.000000
    28  H    0.000000  -0.000000   0.000000
    29  H    0.000000  -0.000000  -0.000000
    30  H    0.000021   0.000021  -0.000023
    31  H    0.001168   0.001184  -0.000031
    32  H    0.000002   0.000001  -0.000000
    33  H    0.000000   0.000000  -0.000000
    34  H   -0.000000   0.000000   0.000000
    35  H    0.000000  -0.000000  -0.000000
    36  H   -0.000000   0.000000  -0.000000
    37  H    0.586074  -0.048846  -0.029440
    38  H   -0.048846   0.586498  -0.029489
    39  H   -0.029440  -0.029489   0.511089
 Mulliken charges:
               1
     1  C   -0.234912
     2  O   -0.536238
     3  C    0.252772
     4  C    0.055605
     5  C   -0.552686
     6  C    0.355033
     7  C   -0.349359
     8  C    0.565562
     9  N   -0.617941
    10  C    0.176609
    11  C   -0.251826
    12  C    0.365139
    13  C   -0.253622
    14  C   -0.152433
    15  C    0.351155
    16  N   -0.522406
    17  N   -0.453276
    18  C    0.051448
    19  C    0.021245
    20  C   -0.531117
    21  O   -0.537285
    22  C   -0.235505
    23  H    0.162355
    24  H    0.159436
    25  H    0.188382
    26  H    0.194945
    27  H    0.190930
    28  H    0.186022
    29  H    0.189563
    30  H    0.182593
    31  H    0.156043
    32  H    0.161851
    33  H    0.217823
    34  H    0.169721
    35  H    0.198755
    36  H    0.176137
    37  H    0.157198
    38  H    0.156915
    39  H    0.185366
 Sum of Mulliken charges =  -0.00000
 Mulliken charges with hydrogens summed into heavy atoms:
               1
     1  C    0.275262
     2  O   -0.536238
     3  C    0.252772
     4  C    0.055605
     5  C    0.019212
     6  C    0.355033
     7  C   -0.159796
     8  C    0.565562
     9  N   -0.617941
    10  C    0.176609
    11  C   -0.069232
    12  C    0.365139
    13  C   -0.097579
    14  C    0.009418
    15  C    0.351155
    16  N   -0.522406
    17  N   -0.453276
    18  C    0.269271
    19  C    0.021245
    20  C    0.013496
    21  O   -0.537285
    22  C    0.263974
 Electronic spatial extent (au):  <R**2>=           8830.3424
 Charge=              0.0000 electrons
 Dipole moment (field-independent basis, Debye):
    X=              4.5989    Y=             -5.0131    Z=              1.0382  Tot=              6.8818
 Quadrupole moment (field-independent basis, Debye-Ang):
   XX=           -110.6428   YY=           -123.1037   ZZ=           -131.2171
   XY=             14.5492   XZ=              7.1168   YZ=             -0.7987
 Traceless Quadrupole moment (field-independent basis, Debye-Ang):
   XX=             11.0117   YY=             -1.4492   ZZ=             -9.5626
   XY=             14.5492   XZ=              7.1168   YZ=             -0.7987
 Octapole moment (field-independent basis, Debye-Ang**2):
  XXX=             20.0529  YYY=            -38.1446  ZZZ=              1.6652  XYY=             20.0965
  XXY=            -63.5778  XXZ=             41.8534  XZZ=             11.7885  YZZ=             -3.9901
  YYZ=             -1.3742  XYZ=             -4.3303
 Hexadecapole moment (field-independent basis, Debye-Ang**3):
 XXXX=          -8581.4896 YYYY=          -1829.0564 ZZZZ=           -221.9194 XXXY=            327.8921
 XXXZ=            215.0872 YYYX=             72.3280 YYYZ=              1.6180 ZZZX=              3.8508
 ZZZY=             -0.1559 XXYY=          -1769.6077 XXZZ=          -1659.2948 YYZZ=           -352.5797
 XXYZ=            -34.3932 YYXZ=             -2.1285 ZZXY=             -6.7618
 N-N= 1.728276168650D+03 E-N=-5.715460461188D+03  KE= 9.641998495667D+02
 No NMR shielding tensors so no spin-rotation constants.
 Leave Link  601 at Mon Jun  9 12:59:30 2025, MaxMem=  5368709120 cpu:               2.9 elap:               0.2
 (Enter /opt/software/custom/apps/gaussian/x86_64-legacy/g16/l9999.exe)
 1\1\GINC-C02\FOpt\RM062X\6-31G(d)\C17H17N3O2\PHFMATIAS\09-Jun-2025\0\\
 #p opt M062X/6-31g(d)\\C17H17N3O2\\0,1\C,5.5647009701,-0.7707023681,1.
 0232133738\O,4.9454020907,-0.702434664,-0.2541235833\C,3.6006746305,-0
 .4316712282,-0.1875691759\C,3.1584581335,0.8612871674,-0.1068166332\C,
 4.0750598684,2.0476513298,-0.08967764\C,1.7493594526,1.0933398964,-0.0
 505769319\C,0.9637822903,2.2277187225,0.0399328729\C,-0.3883526289,1.7
 8533738,0.0539557962\N,-1.6237000383,2.2428971098,0.1219467667\C,-2.40
 5904791,1.1100735126,0.0804356164\C,-3.7973083732,1.0100516249,0.12002
 4722\C,-4.3860246218,-0.248929063,0.0659682399\C,-3.6113387447,-1.4214
 741586,-0.0274460537\C,-2.2218470042,-1.3506465804,-0.0692922351\C,-1.
 6396654737,-0.0933908112,-0.0153850296\N,-0.3454088314,0.3951990328,-0
 .0308291665\N,0.9318138279,-0.0384901125,-0.091502043\C,1.3742877207,-
 1.3232120212,-0.1974662706\C,2.71298561,-1.5618866667,-0.242361856\C,3
 .2682589254,-2.9507807951,-0.3833723983\O,-5.7508553195,-0.2579227942,
 0.1100139149\C,-6.4013356554,-1.5041474946,0.0583707359\H,5.5039037429
 ,0.1941916461,1.5403806321\H,5.093930882,-1.5385260228,1.6491273079\H,
 6.6097819842,-1.0297628652,0.8503429719\H,5.0981841451,1.747148508,-0.
 3197885334\H,3.7513597219,2.7831438502,-0.833722689\H,4.0579495505,2.5
 443031714,0.8873778265\H,1.3107005631,3.2459086202,0.096563398\H,-4.41
 86612037,1.8950423777,0.1918517698\H,-4.0842611179,-2.394307889,-0.068
 1497251\H,-1.6384845158,-2.2622398522,-0.1409051442\H,0.6151757843,-2.
 0934327396,-0.243334553\H,2.4620695317,-3.6834633681,-0.4679219805\H,3
 .9021486335,-3.0253277267,-1.2712437559\H,3.8865970554,-3.226581399,0.
 4771561217\H,-6.1795724928,-2.0365466567,-0.8753217286\H,-6.1225032978
 ,-2.140207222,0.9081506205\H,-7.4694610047,-1.2906094509,0.1049944398\
 \Version=EM64L-G16RevB.01\State=1-A\HF=-972.2861865\RMSD=5.352e-09\RMS
 F=5.497e-06\Dipole=1.8279009,-1.967684,0.3429385\Quadrupole=7.9493441,
 -0.833539,-7.1158051,10.7122785,5.7114264,-0.2968014\PG=C01 [X(C17H17N
 3O2)]\\@


 Everything starts as somebody's daydream.
                           -- Larry Niven
 Job cpu time:       0 days  3 hours 21 minutes 42.1 seconds.
 Elapsed time:       0 days  0 hours 10 minutes 14.2 seconds.
 File lengths (MBytes):  RWF=     95 Int=      0 D2E=      0 Chk=     12 Scr=      1
 Normal termination of Gaussian 16 at Mon Jun  9 12:59:30 2025.
