 Entering Gaussian System, Link 0=g16
 Input=Impureza2.gjf
 Output=Impureza2.log
 Initial command:
 /opt/software/custom/apps/gaussian/x86_64-legacy/g16/l1.exe "/scratch/global/Gau-473821.inp" -scrdir="/scratch/global/"
 Entering Link 1 = /opt/software/custom/apps/gaussian/x86_64-legacy/g16/l1.exe PID=    473822.
  
 Copyright (c) 1988-2017, Gaussian, Inc.  All Rights Reserved.
  
 This is part of the Gaussian(R) 16 program.  It is based on
 the Gaussian(R) 09 system (copyright 2009, Gaussian, Inc.),
 the Gaussian(R) 03 system (copyright 2003, Gaussian, Inc.),
 the Gaussian(R) 98 system (copyright 1998, Gaussian, Inc.),
 the Gaussian(R) 94 system (copyright 1995, Gaussian, Inc.),
 the Gaussian 92(TM) system (copyright 1992, Gaussian, Inc.),
 the Gaussian 90(TM) system (copyright 1990, Gaussian, Inc.),
 the Gaussian 88(TM) system (copyright 1988, Gaussian, Inc.),
 the Gaussian 86(TM) system (copyright 1986, Carnegie Mellon
 University), and the Gaussian 82(TM) system (copyright 1983,
 Carnegie Mellon University). Gaussian is a federally registered
 trademark of Gaussian, Inc.
  
 This software contains proprietary and confidential information,
 including trade secrets, belonging to Gaussian, Inc.
  
 This software is provided under written license and may be
 used, copied, transmitted, or stored only in accord with that
 written license.
  
 The following legend is applicable only to US Government
 contracts under FAR:
  
                    RESTRICTED RIGHTS LEGEND
  
 Use, reproduction and disclosure by the US Government is
 subject to restrictions as set forth in subparagraphs (a)
 and (c) of the Commercial Computer Software - Restricted
 Rights clause in FAR 52.227-19.
  
 Gaussian, Inc.
 340 Quinnipiac St., Bldg. 40, Wallingford CT 06492
  
  
 ---------------------------------------------------------------
 Warning -- This program may not be used in any manner that
 competes with the business of Gaussian, Inc. or will provide
 assistance to any competitor of Gaussian, Inc.  The licensee
 of this program is prohibited from giving any competitor of
 Gaussian, Inc. access to this program.  By using this program,
 the user acknowledges that Gaussian, Inc. is engaged in the
 business of creating and licensing software in the field of
 computational chemistry and represents and warrants to the
 licensee that it is not a competitor of Gaussian, Inc. and that
 it will not use this program in any manner prohibited above.
 ---------------------------------------------------------------
  

 Cite this work as:
 Gaussian 16, Revision B.01,
 M. J. Frisch, G. W. Trucks, H. B. Schlegel, G. E. Scuseria, 
 M. A. Robb, J. R. Cheeseman, G. Scalmani, V. Barone, 
 G. A. Petersson, H. Nakatsuji, X. Li, M. Caricato, A. V. Marenich, 
 J. Bloino, B. G. Janesko, R. Gomperts, B. Mennucci, H. P. Hratchian, 
 J. V. Ortiz, A. F. Izmaylov, J. L. Sonnenberg, D. Williams-Young, 
 F. Ding, F. Lipparini, F. Egidi, J. Goings, B. Peng, A. Petrone, 
 T. Henderson, D. Ranasinghe, V. G. Zakrzewski, J. Gao, N. Rega, 
 G. Zheng, W. Liang, M. Hada, M. Ehara, K. Toyota, R. Fukuda, 
 J. Hasegawa, M. Ishida, T. Nakajima, Y. Honda, O. Kitao, H. Nakai, 
 T. Vreven, K. Throssell, J. A. Montgomery, Jr., J. E. Peralta, 
 F. Ogliaro, M. J. Bearpark, J. J. Heyd, E. N. Brothers, K. N. Kudin, 
 V. N. Staroverov, T. A. Keith, R. Kobayashi, J. Normand, 
 K. Raghavachari, A. P. Rendell, J. C. Burant, S. S. Iyengar, 
 J. Tomasi, M. Cossi, J. M. Millam, M. Klene, C. Adamo, R. Cammi, 
 J. W. Ochterski, R. L. Martin, K. Morokuma, O. Farkas, 
 J. B. Foresman, and D. J. Fox, Gaussian, Inc., Wallingford CT, 2016.
 
 ******************************************
 Gaussian 16:  EM64L-G16RevB.01 20-Dec-2017
                 9-Jun-2025 
 ******************************************
 %nprocshared=20
 Will use up to   20 processors via shared memory.
 %mem=40GB
 %chk=Impureza2.chk
 ---------------------
 #p opt M062X/6-31g(d)
 ---------------------
 1/18=20,19=15,26=3,38=1/1,3;
 2/9=110,12=2,17=6,18=5,40=1/2;
 3/5=1,6=6,7=1,11=2,25=1,30=1,71=1,74=-55/1,2,3;
 4//1;
 5/5=2,38=5/2;
 6/7=2,8=2,9=2,10=2,28=1/1;
 7//1,2,3,16;
 1/18=20,19=15,26=3/3(2);
 2/9=110/2;
 99//99;
 2/9=110/2;
 3/5=1,6=6,7=1,11=2,25=1,30=1,71=1,74=-55/1,2,3;
 4/5=5,16=3,69=1/1;
 5/5=2,38=5/2;
 7//1,2,3,16;
 1/18=20,19=15,26=3/3(-5);
 2/9=110/2;
 6/7=2,8=2,9=2,10=2,19=2,28=1/1;
 99/9=1/99;
 Leave Link    1 at Mon Jun  9 11:36:14 2025, MaxMem=  5368709120 cpu:               0.8 elap:               0.0
 (Enter /opt/software/custom/apps/gaussian/x86_64-legacy/g16/l101.exe)
 -----------
 C16H17N3O2S
 -----------
 Symbolic Z-matrix:
 Charge =  0 Multiplicity = 1
 C                     7.1303   -0.3893    0.2142 
 O                     5.9503   -1.1066    0.5818 
 C                     4.7579   -0.5529    0.2342 
 C                     4.7311    0.6593   -0.4484 
 C                     3.5287    1.2315   -0.8072 
 C                     2.3379    0.5971   -0.4871 
 N                     1.0025    0.8989   -0.698 
 C                     0.2681   -0.1132   -0.1513 
 N                     1.0644   -1.0072    0.3759 
 C                     2.3564   -0.6274    0.2021 
 C                     3.5809   -1.2       0.5558 
 N                    -1.1177   -0.1837   -0.1544 
 C                    -1.7284   -1.3838   -0.3689 
 C                    -3.0739   -1.483    -0.3776 
 C                    -3.732    -2.8177   -0.6158 
 C                    -3.8629   -0.3335   -0.1624 
 O                    -5.215    -0.417    -0.1677 
 C                    -5.8258   -1.1201    0.9162 
 C                    -3.2359    0.8791    0.0543 
 C                    -4.0482    2.1269    0.2875 
 C                    -1.8383    0.9328    0.0598 
 S                    -1.0422    2.4247    0.3269 
 H                     7.1173    0.5954    0.6814 
 H                     8.0093   -0.9394    0.5502 
 H                     7.1644   -0.2769   -0.8695 
 H                     5.6574    1.1551   -0.6983 
 H                     3.5146    2.1728   -1.3366 
 H                     0.6543    1.6834   -1.1499 
 H                     3.6068   -2.1434    1.081 
 H                    -1.1275   -2.2659   -0.5344 
 H                    -2.9712   -3.5598   -0.8577 
 H                    -4.2663   -3.1249    0.2832 
 H                    -4.4343   -2.7337   -1.4451 
 H                    -5.4034   -2.1226    0.983 
 H                    -5.6399   -0.5847    1.8472 
 H                    -6.9001   -1.1891    0.745 
 H                    -4.311     2.1973    1.343 
 H                    -3.4631    3.0003   -0.0004 
 H                    -4.9579    2.0854   -0.3115 
 
 ITRead=  0  0  0  0  0  0  0  0  0  0  0  0  0  0  0  0  0  0  0  0
 ITRead=  0  0  0  0  0  0  0  0  0  0  0  0  0  0  0  0  0  0  0
 MicOpt= -1 -1 -1 -1 -1 -1 -1 -1 -1 -1 -1 -1 -1 -1 -1 -1 -1 -1 -1 -1
 MicOpt= -1 -1 -1 -1 -1 -1 -1 -1 -1 -1 -1 -1 -1 -1 -1 -1 -1 -1 -1
 NAtoms=     39 NQM=       39 NQMF=       0 NMMI=      0 NMMIF=      0
                NMic=       0 NMicF=      0.
                    Isotopes and Nuclear Properties:
 (Nuclear quadrupole moments (NQMom) in fm**2, nuclear magnetic moments (NMagM)
  in nuclear magnetons)

  Atom         1           2           3           4           5           6           7           8           9          10
 IAtWgt=          12          16          12          12          12          12          14          12          14          12
 AtmWgt=  12.0000000  15.9949146  12.0000000  12.0000000  12.0000000  12.0000000  14.0030740  12.0000000  14.0030740  12.0000000
 NucSpn=           0           0           0           0           0           0           2           0           2           0
 AtZEff=  -0.0000000  -0.0000000  -0.0000000  -0.0000000  -0.0000000  -0.0000000  -0.0000000  -0.0000000  -0.0000000  -0.0000000
 NQMom=    0.0000000   0.0000000   0.0000000   0.0000000   0.0000000   0.0000000   2.0440000   0.0000000   2.0440000   0.0000000
 NMagM=    0.0000000   0.0000000   0.0000000   0.0000000   0.0000000   0.0000000   0.4037610   0.0000000   0.4037610   0.0000000
 AtZNuc=   6.0000000   8.0000000   6.0000000   6.0000000   6.0000000   6.0000000   7.0000000   6.0000000   7.0000000   6.0000000

  Atom        11          12          13          14          15          16          17          18          19          20
 IAtWgt=          12          14          12          12          12          12          16          12          12          12
 AtmWgt=  12.0000000  14.0030740  12.0000000  12.0000000  12.0000000  12.0000000  15.9949146  12.0000000  12.0000000  12.0000000
 NucSpn=           0           2           0           0           0           0           0           0           0           0
 AtZEff=  -0.0000000  -0.0000000  -0.0000000  -0.0000000  -0.0000000  -0.0000000  -0.0000000  -0.0000000  -0.0000000  -0.0000000
 NQMom=    0.0000000   2.0440000   0.0000000   0.0000000   0.0000000   0.0000000   0.0000000   0.0000000   0.0000000   0.0000000
 NMagM=    0.0000000   0.4037610   0.0000000   0.0000000   0.0000000   0.0000000   0.0000000   0.0000000   0.0000000   0.0000000
 AtZNuc=   6.0000000   7.0000000   6.0000000   6.0000000   6.0000000   6.0000000   8.0000000   6.0000000   6.0000000   6.0000000

  Atom        21          22          23          24          25          26          27          28          29          30
 IAtWgt=          12          32           1           1           1           1           1           1           1           1
 AtmWgt=  12.0000000  31.9720718   1.0078250   1.0078250   1.0078250   1.0078250   1.0078250   1.0078250   1.0078250   1.0078250
 NucSpn=           0           0           1           1           1           1           1           1           1           1
 AtZEff=  -0.0000000  -0.0000000  -0.0000000  -0.0000000  -0.0000000  -0.0000000  -0.0000000  -0.0000000  -0.0000000  -0.0000000
 NQMom=    0.0000000   0.0000000   0.0000000   0.0000000   0.0000000   0.0000000   0.0000000   0.0000000   0.0000000   0.0000000
 NMagM=    0.0000000   0.0000000   2.7928460   2.7928460   2.7928460   2.7928460   2.7928460   2.7928460   2.7928460   2.7928460
 AtZNuc=   6.0000000  16.0000000   1.0000000   1.0000000   1.0000000   1.0000000   1.0000000   1.0000000   1.0000000   1.0000000

  Atom        31          32          33          34          35          36          37          38          39
 IAtWgt=           1           1           1           1           1           1           1           1           1
 AtmWgt=   1.0078250   1.0078250   1.0078250   1.0078250   1.0078250   1.0078250   1.0078250   1.0078250   1.0078250
 NucSpn=           1           1           1           1           1           1           1           1           1
 AtZEff=  -0.0000000  -0.0000000  -0.0000000  -0.0000000  -0.0000000  -0.0000000  -0.0000000  -0.0000000  -0.0000000
 NQMom=    0.0000000   0.0000000   0.0000000   0.0000000   0.0000000   0.0000000   0.0000000   0.0000000   0.0000000
 NMagM=    2.7928460   2.7928460   2.7928460   2.7928460   2.7928460   2.7928460   2.7928460   2.7928460   2.7928460
 AtZNuc=   1.0000000   1.0000000   1.0000000   1.0000000   1.0000000   1.0000000   1.0000000   1.0000000   1.0000000
 Leave Link  101 at Mon Jun  9 11:36:15 2025, MaxMem=  5368709120 cpu:               6.9 elap:               0.4
 (Enter /opt/software/custom/apps/gaussian/x86_64-legacy/g16/l103.exe)

 GradGradGradGradGradGradGradGradGradGradGradGradGradGradGradGradGradGrad
 Berny optimization.
 Initialization pass.
                           ----------------------------
                           !    Initial Parameters    !
                           ! (Angstroms and Degrees)  !
 --------------------------                            --------------------------
 ! Name  Definition              Value          Derivative Info.                !
 --------------------------------------------------------------------------------
 ! R1    R(1,2)                  1.429          estimate D2E/DX2                !
 ! R2    R(1,23)                 1.09           estimate D2E/DX2                !
 ! R3    R(1,24)                 1.09           estimate D2E/DX2                !
 ! R4    R(1,25)                 1.09           estimate D2E/DX2                !
 ! R5    R(2,3)                  1.3599         estimate D2E/DX2                !
 ! R6    R(3,4)                  1.3914         estimate D2E/DX2                !
 ! R7    R(3,11)                 1.3811         estimate D2E/DX2                !
 ! R8    R(4,5)                  1.3791         estimate D2E/DX2                !
 ! R9    R(4,26)                 1.08           estimate D2E/DX2                !
 ! R10   R(5,6)                  1.3867         estimate D2E/DX2                !
 ! R11   R(5,27)                 1.0801         estimate D2E/DX2                !
 ! R12   R(6,7)                  1.3852         estimate D2E/DX2                !
 ! R13   R(6,10)                 1.4053         estimate D2E/DX2                !
 ! R14   R(7,8)                  1.3648         estimate D2E/DX2                !
 ! R15   R(7,28)                 0.97           estimate D2E/DX2                !
 ! R16   R(8,9)                  1.3082         estimate D2E/DX2                !
 ! R17   R(8,12)                 1.3876         estimate D2E/DX2                !
 ! R18   R(9,10)                 1.3578         estimate D2E/DX2                !
 ! R19   R(10,11)                1.3973         estimate D2E/DX2                !
 ! R20   R(11,29)                1.0801         estimate D2E/DX2                !
 ! R21   R(12,13)                1.3635         estimate D2E/DX2                !
 ! R22   R(12,21)                1.346          estimate D2E/DX2                !
 ! R23   R(13,14)                1.3492         estimate D2E/DX2                !
 ! R24   R(13,30)                1.0801         estimate D2E/DX2                !
 ! R25   R(14,15)                1.5071         estimate D2E/DX2                !
 ! R26   R(14,16)                1.4107         estimate D2E/DX2                !
 ! R27   R(15,31)                1.09           estimate D2E/DX2                !
 ! R28   R(15,32)                1.09           estimate D2E/DX2                !
 ! R29   R(15,33)                1.09           estimate D2E/DX2                !
 ! R30   R(16,17)                1.3547         estimate D2E/DX2                !
 ! R31   R(16,19)                1.3822         estimate D2E/DX2                !
 ! R32   R(17,18)                1.4291         estimate D2E/DX2                !
 ! R33   R(18,34)                1.0899         estimate D2E/DX2                !
 ! R34   R(18,35)                1.0899         estimate D2E/DX2                !
 ! R35   R(18,36)                1.09           estimate D2E/DX2                !
 ! R36   R(19,20)                1.5071         estimate D2E/DX2                !
 ! R37   R(19,21)                1.3986         estimate D2E/DX2                !
 ! R38   R(20,37)                1.09           estimate D2E/DX2                !
 ! R39   R(20,38)                1.09           estimate D2E/DX2                !
 ! R40   R(20,39)                1.09           estimate D2E/DX2                !
 ! R41   R(21,22)                1.712          estimate D2E/DX2                !
 ! A1    A(2,1,23)             109.4729         estimate D2E/DX2                !
 ! A2    A(2,1,24)             109.4675         estimate D2E/DX2                !
 ! A3    A(2,1,25)             109.4714         estimate D2E/DX2                !
 ! A4    A(23,1,24)            109.476          estimate D2E/DX2                !
 ! A5    A(23,1,25)            109.4723         estimate D2E/DX2                !
 ! A6    A(24,1,25)            109.4672         estimate D2E/DX2                !
 ! A7    A(1,2,3)              116.9957         estimate D2E/DX2                !
 ! A8    A(2,3,4)              119.8024         estimate D2E/DX2                !
 ! A9    A(2,3,11)             119.7994         estimate D2E/DX2                !
 ! A10   A(4,3,11)             120.3976         estimate D2E/DX2                !
 ! A11   A(3,4,5)              120.3903         estimate D2E/DX2                !
 ! A12   A(3,4,26)             119.7987         estimate D2E/DX2                !
 ! A13   A(5,4,26)             119.811          estimate D2E/DX2                !
 ! A14   A(4,5,6)              119.9227         estimate D2E/DX2                !
 ! A15   A(4,5,27)             120.034          estimate D2E/DX2                !
 ! A16   A(6,5,27)             120.0433         estimate D2E/DX2                !
 ! A17   A(5,6,7)              133.8699         estimate D2E/DX2                !
 ! A18   A(5,6,10)             120.0365         estimate D2E/DX2                !
 ! A19   A(7,6,10)             106.0936         estimate D2E/DX2                !
 ! A20   A(6,7,8)              107.2295         estimate D2E/DX2                !
 ! A21   A(6,7,28)             126.3839         estimate D2E/DX2                !
 ! A22   A(8,7,28)             126.3866         estimate D2E/DX2                !
 ! A23   A(7,8,9)              109.9187         estimate D2E/DX2                !
 ! A24   A(7,8,12)             125.0439         estimate D2E/DX2                !
 ! A25   A(9,8,12)             125.0374         estimate D2E/DX2                !
 ! A26   A(8,9,10)             109.6617         estimate D2E/DX2                !
 ! A27   A(6,10,9)             107.0964         estimate D2E/DX2                !
 ! A28   A(6,10,11)            119.523          estimate D2E/DX2                !
 ! A29   A(9,10,11)            133.38           estimate D2E/DX2                !
 ! A30   A(3,11,10)            119.728          estimate D2E/DX2                !
 ! A31   A(3,11,29)            120.1355         estimate D2E/DX2                !
 ! A32   A(10,11,29)           120.1362         estimate D2E/DX2                !
 ! A33   A(8,12,13)            119.4966         estimate D2E/DX2                !
 ! A34   A(8,12,21)            119.4834         estimate D2E/DX2                !
 ! A35   A(13,12,21)           121.0194         estimate D2E/DX2                !
 ! A36   A(12,13,14)           120.8231         estimate D2E/DX2                !
 ! A37   A(12,13,30)           119.5867         estimate D2E/DX2                !
 ! A38   A(14,13,30)           119.5902         estimate D2E/DX2                !
 ! A39   A(13,14,15)           120.1072         estimate D2E/DX2                !
 ! A40   A(13,14,16)           119.7926         estimate D2E/DX2                !
 ! A41   A(15,14,16)           120.1002         estimate D2E/DX2                !
 ! A42   A(14,15,31)           109.4662         estimate D2E/DX2                !
 ! A43   A(14,15,32)           109.4691         estimate D2E/DX2                !
 ! A44   A(14,15,33)           109.4734         estimate D2E/DX2                !
 ! A45   A(31,15,32)           109.4699         estimate D2E/DX2                !
 ! A46   A(31,15,33)           109.4726         estimate D2E/DX2                !
 ! A47   A(32,15,33)           109.4761         estimate D2E/DX2                !
 ! A48   A(14,16,17)           120.4904         estimate D2E/DX2                !
 ! A49   A(14,16,19)           119.0158         estimate D2E/DX2                !
 ! A50   A(17,16,19)           120.4938         estimate D2E/DX2                !
 ! A51   A(16,17,18)           116.9974         estimate D2E/DX2                !
 ! A52   A(17,18,34)           109.4741         estimate D2E/DX2                !
 ! A53   A(17,18,35)           109.4681         estimate D2E/DX2                !
 ! A54   A(17,18,36)           109.4666         estimate D2E/DX2                !
 ! A55   A(34,18,35)           109.4736         estimate D2E/DX2                !
 ! A56   A(34,18,36)           109.473          estimate D2E/DX2                !
 ! A57   A(35,18,36)           109.472          estimate D2E/DX2                !
 ! A58   A(16,19,20)           120.4066         estimate D2E/DX2                !
 ! A59   A(16,19,21)           119.182          estimate D2E/DX2                !
 ! A60   A(20,19,21)           120.4109         estimate D2E/DX2                !
 ! A61   A(19,20,37)           109.4674         estimate D2E/DX2                !
 ! A62   A(19,20,38)           109.466          estimate D2E/DX2                !
 ! A63   A(19,20,39)           109.4683         estimate D2E/DX2                !
 ! A64   A(37,20,38)           109.4778         estimate D2E/DX2                !
 ! A65   A(37,20,39)           109.4747         estimate D2E/DX2                !
 ! A66   A(38,20,39)           109.4731         estimate D2E/DX2                !
 ! A67   A(12,21,19)           120.1649         estimate D2E/DX2                !
 ! A68   A(12,21,22)           119.9163         estimate D2E/DX2                !
 ! A69   A(19,21,22)           119.9168         estimate D2E/DX2                !
 ! D1    D(23,1,2,3)            59.9984         estimate D2E/DX2                !
 ! D2    D(24,1,2,3)          -179.997          estimate D2E/DX2                !
 ! D3    D(25,1,2,3)           -60.004          estimate D2E/DX2                !
 ! D4    D(1,2,3,4)              0.0013         estimate D2E/DX2                !
 ! D5    D(1,2,3,11)           179.7247         estimate D2E/DX2                !
 ! D6    D(2,3,4,5)            179.9794         estimate D2E/DX2                !
 ! D7    D(2,3,4,26)            -0.0454         estimate D2E/DX2                !
 ! D8    D(11,3,4,5)             0.2577         estimate D2E/DX2                !
 ! D9    D(11,3,4,26)         -179.767          estimate D2E/DX2                !
 ! D10   D(2,3,11,10)          179.7739         estimate D2E/DX2                !
 ! D11   D(2,3,11,29)           -0.0539         estimate D2E/DX2                !
 ! D12   D(4,3,11,10)           -0.5044         estimate D2E/DX2                !
 ! D13   D(4,3,11,29)          179.6677         estimate D2E/DX2                !
 ! D14   D(3,4,5,6)             -0.0034         estimate D2E/DX2                !
 ! D15   D(3,4,5,27)           179.9761         estimate D2E/DX2                !
 ! D16   D(26,4,5,6)          -179.9787         estimate D2E/DX2                !
 ! D17   D(26,4,5,27)            0.0009         estimate D2E/DX2                !
 ! D18   D(4,5,6,7)           -179.9966         estimate D2E/DX2                !
 ! D19   D(4,5,6,10)             0.0009         estimate D2E/DX2                !
 ! D20   D(27,5,6,7)             0.0238         estimate D2E/DX2                !
 ! D21   D(27,5,6,10)         -179.9787         estimate D2E/DX2                !
 ! D22   D(5,6,7,8)           -179.996          estimate D2E/DX2                !
 ! D23   D(5,6,7,28)            -0.0035         estimate D2E/DX2                !
 ! D24   D(10,6,7,8)             0.0062         estimate D2E/DX2                !
 ! D25   D(10,6,7,28)          179.9987         estimate D2E/DX2                !
 ! D26   D(5,6,10,9)          -179.9999         estimate D2E/DX2                !
 ! D27   D(5,6,10,11)           -0.2474         estimate D2E/DX2                !
 ! D28   D(7,6,10,9)            -0.0018         estimate D2E/DX2                !
 ! D29   D(7,6,10,11)          179.7507         estimate D2E/DX2                !
 ! D30   D(6,7,8,9)             -0.0088         estimate D2E/DX2                !
 ! D31   D(6,7,8,12)          -179.9968         estimate D2E/DX2                !
 ! D32   D(28,7,8,9)           179.9988         estimate D2E/DX2                !
 ! D33   D(28,7,8,12)            0.0107         estimate D2E/DX2                !
 ! D34   D(7,8,9,10)             0.0078         estimate D2E/DX2                !
 ! D35   D(12,8,9,10)          179.9958         estimate D2E/DX2                !
 ! D36   D(7,8,12,13)          140.2641         estimate D2E/DX2                !
 ! D37   D(7,8,12,21)          -40.0039         estimate D2E/DX2                !
 ! D38   D(9,8,12,13)          -39.7222         estimate D2E/DX2                !
 ! D39   D(9,8,12,21)          140.0098         estimate D2E/DX2                !
 ! D40   D(8,9,10,6)            -0.0036         estimate D2E/DX2                !
 ! D41   D(8,9,10,11)         -179.7072         estimate D2E/DX2                !
 ! D42   D(6,10,11,3)            0.4974         estimate D2E/DX2                !
 ! D43   D(6,10,11,29)        -179.6747         estimate D2E/DX2                !
 ! D44   D(9,10,11,3)         -179.8281         estimate D2E/DX2                !
 ! D45   D(9,10,11,29)          -0.0002         estimate D2E/DX2                !
 ! D46   D(8,12,13,14)        -179.9959         estimate D2E/DX2                !
 ! D47   D(8,12,13,30)          -0.027          estimate D2E/DX2                !
 ! D48   D(21,12,13,14)          0.2763         estimate D2E/DX2                !
 ! D49   D(21,12,13,30)       -179.7547         estimate D2E/DX2                !
 ! D50   D(8,12,21,19)         179.7378         estimate D2E/DX2                !
 ! D51   D(8,12,21,22)           0.2394         estimate D2E/DX2                !
 ! D52   D(13,12,21,19)         -0.5344         estimate D2E/DX2                !
 ! D53   D(13,12,21,22)        179.9672         estimate D2E/DX2                !
 ! D54   D(12,13,14,15)       -179.9782         estimate D2E/DX2                !
 ! D55   D(12,13,14,16)         -0.0075         estimate D2E/DX2                !
 ! D56   D(30,13,14,15)          0.0529         estimate D2E/DX2                !
 ! D57   D(30,13,14,16)       -179.9765         estimate D2E/DX2                !
 ! D58   D(13,14,15,31)         -5.5837         estimate D2E/DX2                !
 ! D59   D(13,14,15,32)        114.4103         estimate D2E/DX2                !
 ! D60   D(13,14,15,33)       -125.5837         estimate D2E/DX2                !
 ! D61   D(16,14,15,31)        174.4457         estimate D2E/DX2                !
 ! D62   D(16,14,15,32)        -65.5602         estimate D2E/DX2                !
 ! D63   D(16,14,15,33)         54.4458         estimate D2E/DX2                !
 ! D64   D(13,14,16,17)       -179.9763         estimate D2E/DX2                !
 ! D65   D(13,14,16,19)          0.0057         estimate D2E/DX2                !
 ! D66   D(15,14,16,17)         -0.0057         estimate D2E/DX2                !
 ! D67   D(15,14,16,19)        179.9764         estimate D2E/DX2                !
 ! D68   D(14,16,17,18)         68.8944         estimate D2E/DX2                !
 ! D69   D(19,16,17,18)       -111.0874         estimate D2E/DX2                !
 ! D70   D(14,16,19,20)        179.9961         estimate D2E/DX2                !
 ! D71   D(14,16,19,21)         -0.2578         estimate D2E/DX2                !
 ! D72   D(17,16,19,20)         -0.0219         estimate D2E/DX2                !
 ! D73   D(17,16,19,21)        179.7243         estimate D2E/DX2                !
 ! D74   D(16,17,18,34)        -55.0112         estimate D2E/DX2                !
 ! D75   D(16,17,18,35)         64.9916         estimate D2E/DX2                !
 ! D76   D(16,17,18,36)       -175.0123         estimate D2E/DX2                !
 ! D77   D(16,19,20,37)         85.092          estimate D2E/DX2                !
 ! D78   D(16,19,20,38)       -154.9054         estimate D2E/DX2                !
 ! D79   D(16,19,20,39)        -34.9081         estimate D2E/DX2                !
 ! D80   D(21,19,20,37)        -94.651          estimate D2E/DX2                !
 ! D81   D(21,19,20,38)         25.3515         estimate D2E/DX2                !
 ! D82   D(21,19,20,39)        145.3489         estimate D2E/DX2                !
 ! D83   D(16,19,21,12)          0.5229         estimate D2E/DX2                !
 ! D84   D(16,19,21,22)       -179.9787         estimate D2E/DX2                !
 ! D85   D(20,19,21,12)       -179.7309         estimate D2E/DX2                !
 ! D86   D(20,19,21,22)         -0.2325         estimate D2E/DX2                !
 --------------------------------------------------------------------------------
 Trust Radius=3.00D-01 FncErr=1.00D-07 GrdErr=1.00D-06 EigMax=2.50D+02 EigMin=1.00D-04
 Number of steps in this run=    206 maximum allowed number of steps=    234.
 GradGradGradGradGradGradGradGradGradGradGradGradGradGradGradGradGradGrad

 Leave Link  103 at Mon Jun  9 11:36:15 2025, MaxMem=  5368709120 cpu:               0.6 elap:               0.1
 (Enter /opt/software/custom/apps/gaussian/x86_64-legacy/g16/l202.exe)
                          Input orientation:                          
 ---------------------------------------------------------------------
 Center     Atomic      Atomic             Coordinates (Angstroms)
 Number     Number       Type             X           Y           Z
 ---------------------------------------------------------------------
      1          6           0        7.130300   -0.389300    0.214200
      2          8           0        5.950300   -1.106600    0.581800
      3          6           0        4.757900   -0.552900    0.234200
      4          6           0        4.731100    0.659300   -0.448400
      5          6           0        3.528700    1.231500   -0.807200
      6          6           0        2.337900    0.597100   -0.487100
      7          7           0        1.002500    0.898900   -0.698000
      8          6           0        0.268100   -0.113200   -0.151300
      9          7           0        1.064400   -1.007200    0.375900
     10          6           0        2.356400   -0.627400    0.202100
     11          6           0        3.580900   -1.200000    0.555800
     12          7           0       -1.117700   -0.183700   -0.154400
     13          6           0       -1.728400   -1.383800   -0.368900
     14          6           0       -3.073900   -1.483000   -0.377600
     15          6           0       -3.732000   -2.817700   -0.615800
     16          6           0       -3.862900   -0.333500   -0.162400
     17          8           0       -5.215000   -0.417000   -0.167700
     18          6           0       -5.825800   -1.120100    0.916200
     19          6           0       -3.235900    0.879100    0.054300
     20          6           0       -4.048200    2.126900    0.287500
     21          6           0       -1.838300    0.932800    0.059800
     22         16           0       -1.042200    2.424700    0.326900
     23          1           0        7.117300    0.595400    0.681400
     24          1           0        8.009300   -0.939400    0.550200
     25          1           0        7.164400   -0.276900   -0.869500
     26          1           0        5.657400    1.155100   -0.698300
     27          1           0        3.514600    2.172800   -1.336600
     28          1           0        0.654300    1.683400   -1.149900
     29          1           0        3.606800   -2.143400    1.081000
     30          1           0       -1.127500   -2.265900   -0.534400
     31          1           0       -2.971200   -3.559800   -0.857700
     32          1           0       -4.266300   -3.124900    0.283200
     33          1           0       -4.434300   -2.733700   -1.445100
     34          1           0       -5.403400   -2.122600    0.983000
     35          1           0       -5.639900   -0.584700    1.847200
     36          1           0       -6.900100   -1.189100    0.745000
     37          1           0       -4.311000    2.197300    1.343000
     38          1           0       -3.463100    3.000300   -0.000400
     39          1           0       -4.957900    2.085400   -0.311500
 ---------------------------------------------------------------------
                    Distance matrix (angstroms):
                    1          2          3          4          5
     1  C    0.000000
     2  O    1.429003   0.000000
     3  C    2.378118   1.359863   0.000000
     4  C    2.700882   2.380370   1.391434   0.000000
     5  C    4.079433   3.641453   2.404065   1.379100   0.000000
     6  C    4.942864   4.134559   2.774738   2.394321   1.386698
     7  N    6.327835   5.490049   4.132765   3.744618   2.550340
     8  C    6.877471   5.814781   4.527720   4.539096   3.587469
     9  N    6.099434   4.891247   3.724031   4.111129   3.533310
    10  C    4.779849   3.645535   2.402870   2.778119   2.418364
    11  C    3.656797   2.371383   1.381121   2.405904   2.787954
    12  N    8.258792   7.165916   5.899999   5.916549   4.900813
    13  C    8.933398   7.742293   6.567055   6.775376   5.888039
    14  C   10.279694   9.082858   7.910529   8.093978   7.151741
    15  C   11.161343   9.905001   8.827810   9.151044   8.315673
    16  C   10.999790   9.871697   8.632706   8.655881   7.582924
    17  O   12.351237  11.211656   9.981920  10.008103   8.920695
    18  C   12.995669  11.780855  10.620807  10.792430   9.798306
    19  C   10.444736   9.413157   8.123043   7.985869   6.828337
    20  C   11.458425  10.512475   9.204975   8.931490   7.707757
    21  C    9.066839   8.068081   6.763695   6.594701   5.444777
    22  S    8.644134   7.837736   6.520418   6.086766   4.858296
    23  H    1.089990   2.066062   2.661832   2.640924   3.936827
    24  H    1.090022   2.066019   3.289505   3.781486   5.160535
    25  H    1.090047   2.066086   2.661874   2.640974   3.936682
    26  H    2.321048   2.615288   2.143810   1.079953   2.132853
    27  H    4.694957   4.513021   3.382698   2.135288   1.080050
    28  H    6.935087   6.231412   4.874044   4.261594   2.929818
    29  H    4.030293   2.610775   2.138175   3.385003   3.867990
    30  H    8.501370   7.258452   6.177625   6.548846   5.829788
    31  H   10.641492   9.363947   8.364967   8.791687   8.075135
    32  H   11.720527  10.418331   9.383697   9.788188   8.996067
    33  H   11.915933  10.704938   9.595440   9.823972   8.918469
    34  H   12.676317  11.406126  10.309058  10.606411   9.707585
    35  H   12.875670  11.670748  10.522216  10.694623   9.716360
    36  H   14.063199  12.851701  11.686515  11.837466  10.817971
    37  H   11.784228  10.806917   9.541383   9.345273   8.186393
    38  H   11.124548  10.286772   8.959080   8.533809   7.257055
    39  H   12.350104  11.400688  10.082420   9.794347   8.543842
                    6          7          8          9         10
     6  C    0.000000
     7  N    1.385227   0.000000
     8  C    2.213901   1.364760   0.000000
     9  N    2.222690   2.188678   1.308155   0.000000
    10  C    1.405254   2.229981   2.179516   1.357836   0.000000
    11  C    2.421210   3.553244   3.557495   2.530278   1.397274
    12  N    3.558301   2.441879   1.387596   2.391847   3.520417
    13  C    4.524680   3.574471   2.376507   2.914839   4.193301
    14  C    5.798826   4.732139   3.618913   4.233164   5.527772
    15  C    6.965709   6.019582   4.850864   5.221765   6.521885
    16  C    6.278644   5.047553   4.136885   5.002192   6.236901
    17  O    7.627366   6.377313   5.491534   6.330458   7.583345
    18  C    8.459552   7.301211   6.268095   6.912274   8.228067
    19  C    5.607128   4.304693   3.647595   4.706818   5.793549
    20  C    6.612304   5.290441   4.882729   5.997422   6.972257
    21  C    4.225215   2.940332   2.361271   3.505594   4.477721
    22  S    3.927823   2.749415   2.895945   4.027170   4.569614
    23  H    4.920169   6.275798   6.935924   6.268912   4.938738
    24  H    5.966708   7.350687   7.816706   6.947418   5.672195
    25  H    4.919879   6.275423   6.935529   6.268521   4.938425
    26  H    3.372692   4.661945   5.563483   5.188940   3.858060
    27  H    2.142219   2.888127   4.143730   4.364463   3.398550
    28  H    2.110417   0.969999   2.091441   3.120188   3.172514
    29  H    3.402850   4.382101   4.097218   2.872615   2.152724
    30  H    4.495331   3.818327   2.593951   2.686521   3.919780
    31  H    6.753052   5.974596   4.782376   4.931896   6.172963
    32  H    7.619849   6.701789   5.460761   5.736690   7.078435
    33  H    7.607541   6.581241   5.536561   6.044216   7.298176
    34  H    8.335808   7.279476   6.122927   6.591292   7.941028
    35  H    8.395886   7.266401   6.254661   6.876836   8.163883
    36  H    9.489427   8.300186   7.303698   7.975123   9.289405
    37  H    7.079391   5.838219   5.342237   6.332379   7.330403
    38  H    6.297924   4.984387   4.861945   6.058045   6.860597
    39  H    7.448125   6.089625   5.671912   6.804762   7.818059
                   11         12         13         14         15
    11  C    0.000000
    12  N    4.859433   0.000000
    13  C    5.392357   1.363527   0.000000
    14  C    6.725897   2.358965   1.349180   0.000000
    15  C    7.580772   3.739707   2.476175   1.507070   0.000000
    16  C    7.528399   2.749296   2.387857   1.410738   2.528627
    17  O    8.860271   4.103958   3.623750   2.400984   2.857174
    18  C    9.413941   4.918255   4.302291   3.062445   3.100463
    19  C    7.144433   2.379048   2.751794   2.406719   3.789654
    20  C    8.327269   3.757922   4.258796   3.797762   5.036368
    21  C    5.844876   1.346001   2.358495   2.748475   4.255442
    22  S    5.879107   2.653507   3.931880   4.460296   5.967115
    23  H    3.968043   8.313891   9.125063  10.454749  11.447239
    24  H    4.436065   9.185297   9.791069  11.135243  11.947623
    25  H    3.965484   8.313437   8.975395  10.320825  11.191584
    26  H    3.380993   6.927495   7.816941   9.126775  10.195625
    27  H    3.867991   5.329999   6.408970   7.595583   8.828242
    28  H    4.448415   2.759903   3.961683   4.951970   6.307519
    29  H    1.080051   5.261895   5.580642   6.869890   7.562526
    30  H    4.949112   2.116614   1.080079   2.103804   2.663556
    31  H    7.106100   3.915117   2.553126   2.134043   1.089975
    32  H    8.084436   4.330801   3.146045   2.134083   1.089977
    33  H    8.402337   4.378155   3.209724   2.134126   1.089963
    34  H    9.041645   4.839446   3.984857   2.772524   2.415140
    35  H    9.331102   4.961602   4.566124   3.512981   3.833111
    36  H   10.482713   5.937668   5.293880   3.998301   3.813263
    37  H    8.628060   4.255412   4.735473   4.246821   5.415013
    38  H    8.220086   3.957584   4.729198   4.515942   5.856633
    39  H    9.190058   4.463253   4.740075   4.035753   5.063183
                   16         17         18         19         20
    16  C    0.000000
    17  O    1.354686   0.000000
    18  C    2.373835   1.429079   0.000000
    19  C    1.382204   2.376130   3.383379   0.000000
    20  C    2.508050   2.835499   3.754748   1.507056   0.000000
    21  C    2.398311   3.643600   4.565958   1.398642   2.522178
    22  S    3.975353   5.072686   5.982952   2.697315   3.020972
    23  H   11.051681  12.402885  13.058404  10.376054  11.276925
    24  H   11.908990  13.254071  13.841120  11.402078  12.444055
    25  H   11.050092  12.400068  13.139445  10.505046  11.525593
    26  H    9.650867  10.998278  11.817234   8.929354   9.803819
    27  H    7.879581   9.180376  10.156839   7.012668   7.735357
    28  H    5.044615   6.310711   7.356635   4.150982   4.937238
    29  H    7.785769   9.075454   9.489375   7.550640   8.801371
    30  H    3.369713   4.501173   5.048873   3.831833   5.338792
    31  H    3.418711   3.922745   4.153023   4.539344   5.899997
    32  H    2.855382   2.904490   2.617623   4.140789   5.256329
    33  H    2.780787   2.758322   3.180521   4.091050   5.174593
    34  H    2.624111   2.066078   1.089904   3.817164   4.514259
    35  H    2.694313   2.066031   1.089942   3.337127   3.509836
    36  H    3.283293   2.066089   1.090042   4.263904   4.397556
    37  H    2.978585   3.151824   3.671773   2.134066   1.090000
    38  H    3.361593   3.843837   4.837376   2.134034   1.089980
    39  H    2.659386   2.519679   3.540583   2.134070   1.089990
                   21         22         23         24         25
    21  C    0.000000
    22  S    1.711982   0.000000
    23  H    8.983485   8.369555   0.000000
    24  H   10.035978   9.659021   1.780025   0.000000
    25  H    9.131023   8.722287   1.780005   1.779975   0.000000
    26  H    7.537218   6.895474   2.085220   3.387789   2.085901
    27  H    5.669310   4.857480   4.420403   5.783436   4.420436
    28  H    2.870510   2.368243   6.804981   7.991586   6.804616
    29  H    6.336795   6.561205   4.470382   4.594929   4.465959
    30  H    3.330164   4.769784   8.811466   9.296078   8.533699
    31  H    4.723211   6.398325  11.018727  11.376294  10.654011
    32  H    4.733922   6.418317  11.982719  12.471490  11.836415
    33  H    4.737844   6.423038  12.208373  12.729647  11.870005
    34  H    4.785155   6.334704  12.815866  13.471741  12.836976
    35  H    4.466516   5.701460  12.864598  13.715272  13.092948
    36  H    5.531164   6.895604  14.130675  14.912763  14.186221
    37  H    3.059380   3.430630  11.558972  12.738022  11.945779
    38  H    2.630239   2.509820  10.871672  12.142502  11.155229
    39  H    3.346379   3.981882  12.207228  13.343171  12.362928
                   26         27         28         29         30
    26  H    0.000000
    27  H    2.456569   0.000000
    28  H    5.051144   2.907866   0.000000
    29  H    4.272116   4.948017   5.323398   0.000000
    30  H    7.600327   6.472610   4.376142   5.003811   0.000000
    31  H    9.834044   8.669351   6.381283   7.002487   2.275506
    32  H   10.851800   9.551533   7.027505   7.974054   3.355356
    33  H   10.840797   9.341869   6.744758   8.449197   3.461667
    34  H   11.658104  10.166697   7.465295   9.010757   4.539423
    35  H   11.710485  10.076967   7.331019   9.408404   5.372170
    36  H   12.855707  11.140081   8.301257  10.555498   6.009931
    37  H   10.228494   8.271691   5.579682   9.033376   5.794778
    38  H    9.331417   7.152516   4.473093   8.809686   5.785589
    39  H   10.663005   8.534736   5.688700   9.652766   5.801333
                   31         32         33         34         35
    31  H    0.000000
    32  H    1.779909   0.000000
    33  H    1.779927   1.779967   0.000000
    34  H    3.371842   1.669527   2.684822   0.000000
    35  H    4.825937   3.284127   4.112288   1.779862   0.000000
    36  H    4.860568   3.301134   3.641771   1.779937   1.779957
    37  H    6.307325   5.426876   5.665992   4.470400   3.124055
    38  H    6.634142   6.184144   5.992424   5.565604   4.583046
    39  H    6.009459   5.289537   4.978246   4.425095   3.500649
                   36         37         38         39
    36  H    0.000000
    37  H    4.304503   0.000000
    38  H    5.469887   1.780019   0.000000
    39  H    3.951036   1.779992   1.779958   0.000000
 Stoichiometry    C16H17N3O2S
 Framework group  C1[X(C16H17N3O2S)]
 Deg. of freedom   111
 Full point group                 C1      NOp   1
 Largest Abelian subgroup         C1      NOp   1
 Largest concise Abelian subgroup C1      NOp   1
                         Standard orientation:                         
 ---------------------------------------------------------------------
 Center     Atomic      Atomic             Coordinates (Angstroms)
 Number     Number       Type             X           Y           Z
 ---------------------------------------------------------------------
      1          6           0        7.149196   -0.429382    0.240587
      2          8           0        5.961983   -1.138461    0.600840
      3          6           0        4.775493   -0.573905    0.250488
      4          6           0        4.761212    0.640931   -0.427789
      5          6           0        3.564917    1.224108   -0.789312
      6          6           0        2.367764    0.598184   -0.476300
      7          7           0        1.035700    0.911510   -0.691445
      8          6           0        0.290972   -0.096601   -0.151385
      9          7           0        1.077912   -0.998897    0.375736
     10          6           0        2.373620   -0.628908    0.208498
     11          6           0        3.592032   -1.212645    0.565009
     12          7           0       -1.095327   -0.155905   -0.160293
     13          6           0       -1.714803   -1.350255   -0.381612
     14          6           0       -3.061012   -1.438563   -0.396063
     15          6           0       -3.728874   -2.767039   -0.641762
     16          6           0       -3.841590   -0.283519   -0.179834
     17          8           0       -5.194286   -0.356086   -0.190854
     18          6           0       -5.815097   -1.058148    0.888020
     19          6           0       -3.205723    0.923191    0.043796
     20          6           0       -4.008880    2.176654    0.278290
     21          6           0       -1.807769    0.965592    0.055090
     22         16           0       -1.000762    2.450044    0.330815
     23          1           0        7.142242    0.553696    0.711319
     24          1           0        8.022374   -0.987768    0.578096
     25          1           0        7.188572   -0.313345   -0.842551
     26          1           0        5.692476    1.130141   -0.672167
     27          1           0        3.560535    2.167398   -1.315328
     28          1           0        0.695656    1.700422   -1.141872
     29          1           0        3.608213   -2.158115    1.086865
     30          1           0       -1.120364   -2.236571   -0.547920
     31          1           0       -2.973107   -3.514375   -0.883318
     32          1           0       -4.269254   -3.073165    0.253964
     33          1           0       -4.427124   -2.674378   -1.473557
     34          1           0       -5.401058   -2.064259    0.952855
     35          1           0       -5.628648   -0.527634    1.821703
     36          1           0       -6.889219   -1.117858    0.712268
     37          1           0       -4.275361    2.245357    1.332979
     38          1           0       -3.415608    3.046339   -0.004077
     39          1           0       -4.916461    2.144661   -0.324496
 ---------------------------------------------------------------------
 Rotational constants (GHZ):           0.7492282           0.1136240           0.1015549
 Leave Link  202 at Mon Jun  9 11:36:15 2025, MaxMem=  5368709120 cpu:               0.4 elap:               0.1
 (Enter /opt/software/custom/apps/gaussian/x86_64-legacy/g16/l301.exe)
 Standard basis: 6-31G(d) (6D, 7F)
 Ernie: Thresh=  0.10000D-02 Tol=  0.10000D-05 Strict=F.
 There are   368 symmetry adapted cartesian basis functions of A   symmetry.
 There are   368 symmetry adapted basis functions of A   symmetry.
   368 basis functions,   708 primitive gaussians,   368 cartesian basis functions
    83 alpha electrons       83 beta electrons
       nuclear repulsion energy      1876.1566309334 Hartrees.
 IExCor= 4336 DFT=T Ex+Corr=M062X ExCW=0 ScaHFX=  0.540000
 ScaDFX=  1.000000  1.000000  1.000000  1.000000 ScalE2=  1.000000  1.000000
 IRadAn=      5 IRanWt=     -1 IRanGd=            0 ICorTp=0 IEmpDi=  4
 NAtoms=   39 NActive=   39 NUniq=   39 SFac= 1.00D+00 NAtFMM=   60 NAOKFM=F Big=F
 Integral buffers will be    131072 words long.
 Raffenetti 2 integral format.
 Two-electron integral symmetry is turned on.
 Leave Link  301 at Mon Jun  9 11:36:15 2025, MaxMem=  5368709120 cpu:               1.3 elap:               0.1
 (Enter /opt/software/custom/apps/gaussian/x86_64-legacy/g16/l302.exe)
 NPDir=0 NMtPBC=     1 NCelOv=     1 NCel=       1 NClECP=     1 NCelD=      1
         NCelK=      1 NCelE2=     1 NClLst=     1 CellRange=     0.0.
 One-electron integrals computed using PRISM.
 One-electron integral symmetry used in STVInt
 NBasis=   368 RedAO= T EigKep=  3.21D-04  NBF=   368
 NBsUse=   368 1.00D-06 EigRej= -1.00D+00 NBFU=   368
 Precomputing XC quadrature grid using
 IXCGrd= 4 IRadAn=           5 IRanWt=          -1 IRanGd=           0 AccXCQ= 0.00D+00.
 Generated NRdTot=       0 NPtTot=           0 NUsed=           0 NTot=          32
 NSgBfM=   361   361   361   361   361 MxSgAt=    39 MxSgA2=    39.
 Leave Link  302 at Mon Jun  9 11:36:15 2025, MaxMem=  5368709120 cpu:               7.0 elap:               0.4
 (Enter /opt/software/custom/apps/gaussian/x86_64-legacy/g16/l303.exe)
 DipDrv:  MaxL=1.
 Leave Link  303 at Mon Jun  9 11:36:15 2025, MaxMem=  5368709120 cpu:               0.9 elap:               0.1
 (Enter /opt/software/custom/apps/gaussian/x86_64-legacy/g16/l401.exe)
 ExpMin= 1.17D-01 ExpMax= 2.19D+04 ExpMxC= 3.30D+03 IAcc=3 IRadAn=         5 AccDes= 0.00D+00
 Harris functional with IExCor= 1009 and IRadAn=       5 diagonalized for initial guess.
 HarFok:  IExCor= 1009 AccDes= 0.00D+00 IRadAn=         5 IDoV= 1 UseB2=F ITyADJ=14
 ICtDFT=  3500011 ScaDFX=  1.000000  1.000000  1.000000  1.000000
 FoFCou: FMM=F IPFlag=           0 FMFlag=      100000 FMFlg1=           0
         NFxFlg=           0 DoJE=T BraDBF=F KetDBF=T FulRan=T
         wScrn=  0.000000 ICntrl=       500 IOpCl=  0 I1Cent=   200000004 NGrid=           0
         NMat0=    1 NMatS0=      1 NMatT0=    0 NMatD0=    1 NMtDS0=    0 NMtDT0=    0
 Petite list used in FoFCou.
 Harris En= -1331.69425009201    
 JPrj=0 DoOrth=F DoCkMO=F.
 Leave Link  401 at Mon Jun  9 11:36:17 2025, MaxMem=  5368709120 cpu:              23.8 elap:               1.2
 (Enter /opt/software/custom/apps/gaussian/x86_64-legacy/g16/l502.exe)
 Integral symmetry usage will be decided dynamically.
 Closed shell SCF:
 Using DIIS extrapolation, IDIIS=  1040.
 NGot=  5368709120 LenX=  5368426838 LenY=  5368290973
 Requested convergence on RMS density matrix=1.00D-08 within 128 cycles.
 Requested convergence on MAX density matrix=1.00D-06.
 Requested convergence on             energy=1.00D-06.
 No special actions if energy rises.
 Fock matrices will be formed incrementally for  20 cycles.
 Integral accuracy reduced to 1.0D-05 until final iterations.

 Cycle   1  Pass 0  IDiag  1:
 FoFJK:  IHMeth= 1 ICntrl=       0 DoSepK=F KAlg= 0 I1Cent=           0 FoldK=F
 IRaf= 700000000 NMat=       1 IRICut=       1 DoRegI=T DoRafI=F ISym2E= 0 IDoP0=0 IntGTp=1.
 FoFCou: FMM=F IPFlag=           0 FMFlag=      100000 FMFlg1=           0
         NFxFlg=           0 DoJE=F BraDBF=F KetDBF=F FulRan=T
         wScrn=  0.000000 ICntrl=         0 IOpCl=  0 I1Cent=           0 NGrid=           0
         NMat0=    1 NMatS0=      1 NMatT0=    0 NMatD0=    1 NMtDS0=    0 NMtDT0=    0
 Symmetry not used in FoFCou.
 E= -1331.91422978628    
 DIIS: error= 2.11D-02 at cycle   1 NSaved=   1.
 NSaved= 1 IEnMin= 1 EnMin= -1331.91422978628     IErMin= 1 ErrMin= 2.11D-02
 ErrMax= 2.11D-02  0.00D+00 EMaxC= 1.00D-01 BMatC= 5.18D-01 BMatP= 5.18D-01
 IDIUse=3 WtCom= 7.89D-01 WtEn= 2.11D-01
 Coeff-Com:  0.100D+01
 Coeff-En:   0.100D+01
 Coeff:      0.100D+01
 Gap=     0.237 Goal=   None    Shift=    0.000
 GapD=    0.237 DampG=1.000 DampE=0.500 DampFc=0.5000 IDamp=-1.
 Damping current iteration by 5.00D-01
 RMSDP=3.86D-03 MaxDP=1.23D-01              OVMax= 2.27D-01

 Cycle   2  Pass 0  IDiag  1:
 RMSU=  1.91D-03    CP:  9.83D-01
 E= -1332.13179345845     Delta-E=       -0.217563672166 Rises=F Damp=T
 DIIS: error= 1.04D-02 at cycle   2 NSaved=   2.
 NSaved= 2 IEnMin= 2 EnMin= -1332.13179345845     IErMin= 2 ErrMin= 1.04D-02
 ErrMax= 1.04D-02  0.00D+00 EMaxC= 1.00D-01 BMatC= 5.77D-02 BMatP= 5.18D-01
 IDIUse=3 WtCom= 8.96D-01 WtEn= 1.04D-01
 Coeff-Com: -0.665D-01 0.107D+01
 Coeff-En:   0.000D+00 0.100D+01
 Coeff:     -0.596D-01 0.106D+01
 Gap=     0.248 Goal=   None    Shift=    0.000
 RMSDP=1.39D-03 MaxDP=7.28D-02 DE=-2.18D-01 OVMax= 1.98D-01

 Cycle   3  Pass 0  IDiag  1:
 RMSU=  1.36D-03    CP:  9.71D-01  9.65D-01
 E= -1332.32856509614     Delta-E=       -0.196771637687 Rises=F Damp=F
 DIIS: error= 7.38D-03 at cycle   3 NSaved=   3.
 NSaved= 3 IEnMin= 3 EnMin= -1332.32856509614     IErMin= 3 ErrMin= 7.38D-03
 ErrMax= 7.38D-03  0.00D+00 EMaxC= 1.00D-01 BMatC= 4.28D-02 BMatP= 5.77D-02
 IDIUse=3 WtCom= 9.26D-01 WtEn= 7.38D-02
 Coeff-Com: -0.119D+00 0.540D+00 0.579D+00
 Coeff-En:   0.000D+00 0.000D+00 0.100D+01
 Coeff:     -0.111D+00 0.500D+00 0.611D+00
 Gap=     0.198 Goal=   None    Shift=    0.000
 RMSDP=8.84D-04 MaxDP=5.41D-02 DE=-1.97D-01 OVMax= 7.02D-02

 Cycle   4  Pass 0  IDiag  1:
 RMSU=  4.92D-04    CP:  9.75D-01  1.17D+00  5.50D-01
 E= -1332.36392155717     Delta-E=       -0.035356461036 Rises=F Damp=F
 DIIS: error= 3.15D-03 at cycle   4 NSaved=   4.
 NSaved= 4 IEnMin= 4 EnMin= -1332.36392155717     IErMin= 4 ErrMin= 3.15D-03
 ErrMax= 3.15D-03  0.00D+00 EMaxC= 1.00D-01 BMatC= 6.75D-03 BMatP= 4.28D-02
 IDIUse=3 WtCom= 9.69D-01 WtEn= 3.15D-02
 Coeff-Com: -0.366D-01 0.102D+00 0.318D+00 0.616D+00
 Coeff-En:   0.000D+00 0.000D+00 0.127D+00 0.873D+00
 Coeff:     -0.355D-01 0.988D-01 0.312D+00 0.624D+00
 Gap=     0.200 Goal=   None    Shift=    0.000
 RMSDP=3.18D-04 MaxDP=2.11D-02 DE=-3.54D-02 OVMax= 2.17D-02

 Cycle   5  Pass 0  IDiag  1:
 RMSU=  1.37D-04    CP:  9.73D-01  1.12D+00  6.82D-01  5.89D-01
 E= -1332.37014075235     Delta-E=       -0.006219195177 Rises=F Damp=F
 DIIS: error= 5.45D-04 at cycle   5 NSaved=   5.
 NSaved= 5 IEnMin= 5 EnMin= -1332.37014075235     IErMin= 5 ErrMin= 5.45D-04
 ErrMax= 5.45D-04  0.00D+00 EMaxC= 1.00D-01 BMatC= 2.70D-04 BMatP= 6.75D-03
 IDIUse=3 WtCom= 9.95D-01 WtEn= 5.45D-03
 Coeff-Com: -0.107D-01 0.237D-01 0.123D+00 0.298D+00 0.566D+00
 Coeff-En:   0.000D+00 0.000D+00 0.000D+00 0.000D+00 0.100D+01
 Coeff:     -0.107D-01 0.235D-01 0.122D+00 0.296D+00 0.568D+00
 Gap=     0.199 Goal=   None    Shift=    0.000
 RMSDP=6.82D-05 MaxDP=3.83D-03 DE=-6.22D-03 OVMax= 4.60D-03

 Cycle   6  Pass 0  IDiag  1:
 RMSU=  3.94D-05    CP:  9.73D-01  1.13D+00  6.83D-01  6.56D-01  6.73D-01
 E= -1332.37039751564     Delta-E=       -0.000256763295 Rises=F Damp=F
 DIIS: error= 1.20D-04 at cycle   6 NSaved=   6.
 NSaved= 6 IEnMin= 6 EnMin= -1332.37039751564     IErMin= 6 ErrMin= 1.20D-04
 ErrMax= 1.20D-04  0.00D+00 EMaxC= 1.00D-01 BMatC= 1.84D-05 BMatP= 2.70D-04
 IDIUse=3 WtCom= 9.99D-01 WtEn= 1.20D-03
 Coeff-Com: -0.224D-03-0.124D-02 0.192D-01 0.589D-01 0.233D+00 0.690D+00
 Coeff-En:   0.000D+00 0.000D+00 0.000D+00 0.000D+00 0.000D+00 0.100D+01
 Coeff:     -0.224D-03-0.123D-02 0.191D-01 0.588D-01 0.233D+00 0.691D+00
 Gap=     0.199 Goal=   None    Shift=    0.000
 RMSDP=1.90D-05 MaxDP=9.61D-04 DE=-2.57D-04 OVMax= 1.87D-03

 Cycle   7  Pass 0  IDiag  1:
 RMSU=  1.42D-05    CP:  9.73D-01  1.13D+00  6.86D-01  6.51D-01  7.44D-01
                    CP:  8.48D-01
 E= -1332.37041802287     Delta-E=       -0.000020507232 Rises=F Damp=F
 DIIS: error= 5.02D-05 at cycle   7 NSaved=   7.
 NSaved= 7 IEnMin= 7 EnMin= -1332.37041802287     IErMin= 7 ErrMin= 5.02D-05
 ErrMax= 5.02D-05  0.00D+00 EMaxC= 1.00D-01 BMatC= 2.87D-06 BMatP= 1.84D-05
 IDIUse=1 WtCom= 1.00D+00 WtEn= 0.00D+00
 Coeff-Com:  0.126D-02-0.352D-02-0.601D-02-0.119D-01 0.243D-01 0.308D+00
 Coeff-Com:  0.688D+00
 Coeff:      0.126D-02-0.352D-02-0.601D-02-0.119D-01 0.243D-01 0.308D+00
 Coeff:      0.688D+00
 Gap=     0.199 Goal=   None    Shift=    0.000
 RMSDP=8.32D-06 MaxDP=3.95D-04 DE=-2.05D-05 OVMax= 5.26D-04

 Initial convergence to 1.0D-05 achieved.  Increase integral accuracy.
 Cycle   8  Pass 1  IDiag  1:
 E= -1332.37051372452     Delta-E=       -0.000095701647 Rises=F Damp=F
 DIIS: error= 5.56D-05 at cycle   1 NSaved=   1.
 NSaved= 1 IEnMin= 1 EnMin= -1332.37051372452     IErMin= 1 ErrMin= 5.56D-05
 ErrMax= 5.56D-05  0.00D+00 EMaxC= 1.00D-01 BMatC= 1.07D-06 BMatP= 1.07D-06
 IDIUse=1 WtCom= 1.00D+00 WtEn= 0.00D+00
 Coeff-Com:  0.100D+01
 Coeff:      0.100D+01
 Gap=     0.199 Goal=   None    Shift=    0.000
 RMSDP=8.32D-06 MaxDP=3.95D-04 DE=-9.57D-05 OVMax= 3.92D-04

 Cycle   9  Pass 1  IDiag  1:
 RMSU=  2.91D-05    CP:  1.00D+00
 E= -1332.37051464272     Delta-E=       -0.000000918203 Rises=F Damp=F
 DIIS: error= 1.39D-05 at cycle   2 NSaved=   2.
 NSaved= 2 IEnMin= 2 EnMin= -1332.37051464272     IErMin= 2 ErrMin= 1.39D-05
 ErrMax= 1.39D-05  0.00D+00 EMaxC= 1.00D-01 BMatC= 2.59D-07 BMatP= 1.07D-06
 IDIUse=1 WtCom= 1.00D+00 WtEn= 0.00D+00
 Coeff-Com:  0.250D+00 0.750D+00
 Coeff:      0.250D+00 0.750D+00
 Gap=     0.199 Goal=   None    Shift=    0.000
 RMSDP=3.30D-06 MaxDP=1.65D-04 DE=-9.18D-07 OVMax= 1.87D-04

 Cycle  10  Pass 1  IDiag  1:
 RMSU=  3.24D-06    CP:  1.00D+00  1.02D+00
 E= -1332.37051478643     Delta-E=       -0.000000143702 Rises=F Damp=F
 DIIS: error= 1.17D-05 at cycle   3 NSaved=   3.
 NSaved= 3 IEnMin= 3 EnMin= -1332.37051478643     IErMin= 3 ErrMin= 1.17D-05
 ErrMax= 1.17D-05  0.00D+00 EMaxC= 1.00D-01 BMatC= 1.52D-07 BMatP= 2.59D-07
 IDIUse=1 WtCom= 1.00D+00 WtEn= 0.00D+00
 Coeff-Com: -0.156D-01 0.431D+00 0.585D+00
 Coeff:     -0.156D-01 0.431D+00 0.585D+00
 Gap=     0.199 Goal=   None    Shift=    0.000
 RMSDP=1.64D-06 MaxDP=8.10D-05 DE=-1.44D-07 OVMax= 1.02D-04

 Cycle  11  Pass 1  IDiag  1:
 RMSU=  9.09D-07    CP:  1.00D+00  1.03D+00  5.96D-01
 E= -1332.37051494321     Delta-E=       -0.000000156779 Rises=F Damp=F
 DIIS: error= 4.01D-06 at cycle   4 NSaved=   4.
 NSaved= 4 IEnMin= 4 EnMin= -1332.37051494321     IErMin= 4 ErrMin= 4.01D-06
 ErrMax= 4.01D-06  0.00D+00 EMaxC= 1.00D-01 BMatC= 7.63D-09 BMatP= 1.52D-07
 IDIUse=1 WtCom= 1.00D+00 WtEn= 0.00D+00
 Coeff-Com: -0.202D-01 0.169D+00 0.278D+00 0.573D+00
 Coeff:     -0.202D-01 0.169D+00 0.278D+00 0.573D+00
 Gap=     0.199 Goal=   None    Shift=    0.000
 RMSDP=3.90D-07 MaxDP=2.04D-05 DE=-1.57D-07 OVMax= 4.71D-05

 Cycle  12  Pass 1  IDiag  1:
 RMSU=  3.31D-07    CP:  1.00D+00  1.04D+00  6.57D-01  9.95D-01
 E= -1332.37051495368     Delta-E=       -0.000000010478 Rises=F Damp=F
 DIIS: error= 1.39D-06 at cycle   5 NSaved=   5.
 NSaved= 5 IEnMin= 5 EnMin= -1332.37051495368     IErMin= 5 ErrMin= 1.39D-06
 ErrMax= 1.39D-06  0.00D+00 EMaxC= 1.00D-01 BMatC= 1.14D-09 BMatP= 7.63D-09
 IDIUse=1 WtCom= 1.00D+00 WtEn= 0.00D+00
 Coeff-Com: -0.116D-02-0.873D-01-0.105D+00 0.178D+00 0.102D+01
 Coeff:     -0.116D-02-0.873D-01-0.105D+00 0.178D+00 0.102D+01
 Gap=     0.199 Goal=   None    Shift=    0.000
 RMSDP=3.08D-07 MaxDP=1.45D-05 DE=-1.05D-08 OVMax= 3.84D-05

 Cycle  13  Pass 1  IDiag  1:
 RMSU=  1.29D-07    CP:  1.00D+00  1.04D+00  6.64D-01  1.29D+00  1.16D+00
 E= -1332.37051495695     Delta-E=       -0.000000003271 Rises=F Damp=F
 DIIS: error= 6.75D-07 at cycle   6 NSaved=   6.
 NSaved= 6 IEnMin= 6 EnMin= -1332.37051495695     IErMin= 6 ErrMin= 6.75D-07
 ErrMax= 6.75D-07  0.00D+00 EMaxC= 1.00D-01 BMatC= 2.52D-10 BMatP= 1.14D-09
 IDIUse=1 WtCom= 1.00D+00 WtEn= 0.00D+00
 Coeff-Com:  0.246D-02-0.650D-01-0.893D-01 0.177D-01 0.511D+00 0.623D+00
 Coeff:      0.246D-02-0.650D-01-0.893D-01 0.177D-01 0.511D+00 0.623D+00
 Gap=     0.199 Goal=   None    Shift=    0.000
 RMSDP=8.54D-08 MaxDP=3.21D-06 DE=-3.27D-09 OVMax= 1.35D-05

 Cycle  14  Pass 1  IDiag  1:
 RMSU=  5.22D-08    CP:  1.00D+00  1.04D+00  6.67D-01  1.35D+00  1.28D+00
                    CP:  8.45D-01
 E= -1332.37051495728     Delta-E=       -0.000000000327 Rises=F Damp=F
 DIIS: error= 1.23D-07 at cycle   7 NSaved=   7.
 NSaved= 7 IEnMin= 7 EnMin= -1332.37051495728     IErMin= 7 ErrMin= 1.23D-07
 ErrMax= 1.23D-07  0.00D+00 EMaxC= 1.00D-01 BMatC= 2.28D-11 BMatP= 2.52D-10
 IDIUse=1 WtCom= 1.00D+00 WtEn= 0.00D+00
 Coeff-Com:  0.115D-02-0.204D-01-0.303D-01-0.867D-02 0.114D+00 0.268D+00
 Coeff-Com:  0.676D+00
 Coeff:      0.115D-02-0.204D-01-0.303D-01-0.867D-02 0.114D+00 0.268D+00
 Coeff:      0.676D+00
 Gap=     0.199 Goal=   None    Shift=    0.000
 RMSDP=2.69D-08 MaxDP=8.54D-07 DE=-3.27D-10 OVMax= 3.71D-06

 Cycle  15  Pass 1  IDiag  1:
 RMSU=  1.67D-08    CP:  1.00D+00  1.04D+00  6.68D-01  1.37D+00  1.30D+00
                    CP:  9.36D-01  9.44D-01
 E= -1332.37051495738     Delta-E=       -0.000000000097 Rises=F Damp=F
 DIIS: error= 5.17D-08 at cycle   8 NSaved=   8.
 NSaved= 8 IEnMin= 8 EnMin= -1332.37051495738     IErMin= 8 ErrMin= 5.17D-08
 ErrMax= 5.17D-08  0.00D+00 EMaxC= 1.00D-01 BMatC= 3.58D-12 BMatP= 2.28D-11
 IDIUse=1 WtCom= 1.00D+00 WtEn= 0.00D+00
 Coeff-Com: -0.109D-04 0.491D-02 0.529D-02-0.535D-02-0.586D-01-0.113D-01
 Coeff-Com:  0.296D+00 0.770D+00
 Coeff:     -0.109D-04 0.491D-02 0.529D-02-0.535D-02-0.586D-01-0.113D-01
 Coeff:      0.296D+00 0.770D+00
 Gap=     0.199 Goal=   None    Shift=    0.000
 RMSDP=1.35D-08 MaxDP=4.89D-07 DE=-9.69D-11 OVMax= 1.23D-06

 Cycle  16  Pass 1  IDiag  1:
 RMSU=  7.01D-09    CP:  1.00D+00  1.04D+00  6.67D-01  1.37D+00  1.30D+00
                    CP:  9.73D-01  1.09D+00  9.34D-01
 E= -1332.37051495737     Delta-E=        0.000000000013 Rises=F Damp=F
 DIIS: error= 2.35D-08 at cycle   9 NSaved=   9.
 NSaved= 9 IEnMin= 8 EnMin= -1332.37051495738     IErMin= 9 ErrMin= 2.35D-08
 ErrMax= 2.35D-08  0.00D+00 EMaxC= 1.00D-01 BMatC= 3.72D-13 BMatP= 3.58D-12
 IDIUse=1 WtCom= 1.00D+00 WtEn= 0.00D+00
 Coeff-Com: -0.113D-03 0.379D-02 0.467D-02-0.721D-03-0.329D-01-0.288D-01
 Coeff-Com:  0.636D-01 0.311D+00 0.680D+00
 Coeff:     -0.113D-03 0.379D-02 0.467D-02-0.721D-03-0.329D-01-0.288D-01
 Coeff:      0.636D-01 0.311D+00 0.680D+00
 Gap=     0.199 Goal=   None    Shift=    0.000
 RMSDP=3.58D-09 MaxDP=1.61D-07 DE= 1.27D-11 OVMax= 4.46D-07

 SCF Done:  E(RM062X) =  -1332.37051496     A.U. after   16 cycles
            NFock= 16  Conv=0.36D-08     -V/T= 2.0062
 KE= 1.324112748813D+03 PE=-6.870750133360D+03 EE= 2.338110238656D+03
 Leave Link  502 at Mon Jun  9 11:37:06 2025, MaxMem=  5368709120 cpu:             983.0 elap:              49.4
 (Enter /opt/software/custom/apps/gaussian/x86_64-legacy/g16/l601.exe)
 Copying SCF densities to generalized density rwf, IOpCl= 0 IROHF=0.

 **********************************************************************

            Population analysis using the SCF Density.

 **********************************************************************

 Orbital symmetries:
       Occupied  (A) (A) (A) (A) (A) (A) (A) (A) (A) (A) (A) (A)
                 (A) (A) (A) (A) (A) (A) (A) (A) (A) (A) (A) (A)
                 (A) (A) (A) (A) (A) (A) (A) (A) (A) (A) (A) (A)
                 (A) (A) (A) (A) (A) (A) (A) (A) (A) (A) (A) (A)
                 (A) (A) (A) (A) (A) (A) (A) (A) (A) (A) (A) (A)
                 (A) (A) (A) (A) (A) (A) (A) (A) (A) (A) (A) (A)
                 (A) (A) (A) (A) (A) (A) (A) (A) (A) (A) (A)
       Virtual   (A) (A) (A) (A) (A) (A) (A) (A) (A) (A) (A) (A)
                 (A) (A) (A) (A) (A) (A) (A) (A) (A) (A) (A) (A)
                 (A) (A) (A) (A) (A) (A) (A) (A) (A) (A) (A) (A)
                 (A) (A) (A) (A) (A) (A) (A) (A) (A) (A) (A) (A)
                 (A) (A) (A) (A) (A) (A) (A) (A) (A) (A) (A) (A)
                 (A) (A) (A) (A) (A) (A) (A) (A) (A) (A) (A) (A)
                 (A) (A) (A) (A) (A) (A) (A) (A) (A) (A) (A) (A)
                 (A) (A) (A) (A) (A) (A) (A) (A) (A) (A) (A) (A)
                 (A) (A) (A) (A) (A) (A) (A) (A) (A) (A) (A) (A)
                 (A) (A) (A) (A) (A) (A) (A) (A) (A) (A) (A) (A)
                 (A) (A) (A) (A) (A) (A) (A) (A) (A) (A) (A) (A)
                 (A) (A) (A) (A) (A) (A) (A) (A) (A) (A) (A) (A)
                 (A) (A) (A) (A) (A) (A) (A) (A) (A) (A) (A) (A)
                 (A) (A) (A) (A) (A) (A) (A) (A) (A) (A) (A) (A)
                 (A) (A) (A) (A) (A) (A) (A) (A) (A) (A) (A) (A)
                 (A) (A) (A) (A) (A) (A) (A) (A) (A) (A) (A) (A)
                 (A) (A) (A) (A) (A) (A) (A) (A) (A) (A) (A) (A)
                 (A) (A) (A) (A) (A) (A) (A) (A) (A) (A) (A) (A)
                 (A) (A) (A) (A) (A) (A) (A) (A) (A) (A) (A) (A)
                 (A) (A) (A) (A) (A) (A) (A) (A) (A) (A) (A) (A)
                 (A) (A) (A) (A) (A) (A) (A) (A) (A) (A) (A) (A)
                 (A) (A) (A) (A) (A) (A) (A) (A) (A) (A) (A) (A)
                 (A) (A) (A) (A) (A) (A) (A) (A) (A) (A) (A) (A)
                 (A) (A) (A) (A) (A) (A) (A) (A) (A)
 The electronic state is 1-A.
 Alpha  occ. eigenvalues --  -89.84529 -19.68357 -19.66024 -14.86511 -14.80677
 Alpha  occ. eigenvalues --  -14.74365 -10.66033 -10.63800 -10.63517 -10.62002
 Alpha  occ. eigenvalues --  -10.61602 -10.60052 -10.59698 -10.58121 -10.57744
 Alpha  occ. eigenvalues --  -10.57462 -10.56899 -10.56600 -10.55271 -10.54332
 Alpha  occ. eigenvalues --  -10.53880 -10.53282  -8.19332  -6.11436  -6.11037
 Alpha  occ. eigenvalues --   -6.10773  -1.20693  -1.17874  -1.17424  -1.11700
 Alpha  occ. eigenvalues --   -0.98929  -0.96440  -0.94223  -0.92911  -0.85239
 Alpha  occ. eigenvalues --   -0.85142  -0.84138  -0.82407  -0.79930  -0.78660
 Alpha  occ. eigenvalues --   -0.76939  -0.73851  -0.70795  -0.70290  -0.68113
 Alpha  occ. eigenvalues --   -0.67252  -0.63893  -0.63126  -0.60644  -0.59850
 Alpha  occ. eigenvalues --   -0.59267  -0.57031  -0.55332  -0.55010  -0.54393
 Alpha  occ. eigenvalues --   -0.54195  -0.52891  -0.52353  -0.51173  -0.49821
 Alpha  occ. eigenvalues --   -0.49664  -0.49515  -0.48153  -0.47546  -0.47442
 Alpha  occ. eigenvalues --   -0.46006  -0.45346  -0.44433  -0.44021  -0.43672
 Alpha  occ. eigenvalues --   -0.43062  -0.40104  -0.38807  -0.37791  -0.36886
 Alpha  occ. eigenvalues --   -0.36514  -0.35737  -0.34113  -0.33315  -0.27315
 Alpha  occ. eigenvalues --   -0.26263  -0.24215  -0.23508
 Alpha virt. eigenvalues --   -0.03574   0.01756   0.02698   0.07721   0.10635
 Alpha virt. eigenvalues --    0.11659   0.12555   0.14036   0.14359   0.15369
 Alpha virt. eigenvalues --    0.15872   0.16302   0.17238   0.18280   0.18686
 Alpha virt. eigenvalues --    0.19182   0.19449   0.20178   0.20451   0.20924
 Alpha virt. eigenvalues --    0.21384   0.21552   0.21662   0.23602   0.24268
 Alpha virt. eigenvalues --    0.24800   0.25081   0.25617   0.26859   0.27901
 Alpha virt. eigenvalues --    0.29287   0.30726   0.31241   0.32822   0.33507
 Alpha virt. eigenvalues --    0.34187   0.34906   0.36888   0.37421   0.38710
 Alpha virt. eigenvalues --    0.41810   0.42369   0.43638   0.44221   0.45444
 Alpha virt. eigenvalues --    0.48593   0.49293   0.50328   0.51748   0.52625
 Alpha virt. eigenvalues --    0.52779   0.53715   0.54896   0.55215   0.56029
 Alpha virt. eigenvalues --    0.56257   0.56889   0.57676   0.57919   0.58607
 Alpha virt. eigenvalues --    0.59004   0.59540   0.60269   0.60626   0.62598
 Alpha virt. eigenvalues --    0.63636   0.64126   0.65385   0.65605   0.65964
 Alpha virt. eigenvalues --    0.66382   0.66531   0.68198   0.68479   0.69322
 Alpha virt. eigenvalues --    0.70579   0.71718   0.72355   0.73158   0.74653
 Alpha virt. eigenvalues --    0.75100   0.75958   0.77260   0.78880   0.79292
 Alpha virt. eigenvalues --    0.80364   0.80497   0.82060   0.82322   0.84350
 Alpha virt. eigenvalues --    0.84964   0.85863   0.86467   0.88438   0.88806
 Alpha virt. eigenvalues --    0.89752   0.90164   0.91084   0.91647   0.91971
 Alpha virt. eigenvalues --    0.92703   0.93069   0.93703   0.94019   0.94658
 Alpha virt. eigenvalues --    0.94959   0.95737   0.97187   0.97505   0.97981
 Alpha virt. eigenvalues --    0.98969   0.99143   0.99898   1.00929   1.01997
 Alpha virt. eigenvalues --    1.02447   1.02657   1.03854   1.04462   1.04685
 Alpha virt. eigenvalues --    1.06620   1.08662   1.10077   1.11122   1.11677
 Alpha virt. eigenvalues --    1.12156   1.13078   1.15065   1.16155   1.16261
 Alpha virt. eigenvalues --    1.16937   1.18302   1.20002   1.20409   1.22309
 Alpha virt. eigenvalues --    1.22809   1.24294   1.27522   1.28689   1.30235
 Alpha virt. eigenvalues --    1.30965   1.32507   1.34121   1.35096   1.37048
 Alpha virt. eigenvalues --    1.39695   1.39979   1.41154   1.42139   1.42949
 Alpha virt. eigenvalues --    1.43161   1.44912   1.46369   1.48674   1.49323
 Alpha virt. eigenvalues --    1.50659   1.51572   1.52014   1.53804   1.54095
 Alpha virt. eigenvalues --    1.55674   1.57405   1.57513   1.58485   1.59179
 Alpha virt. eigenvalues --    1.60569   1.61744   1.62541   1.71412   1.74992
 Alpha virt. eigenvalues --    1.76408   1.78856   1.79361   1.80584   1.83068
 Alpha virt. eigenvalues --    1.85259   1.86643   1.87428   1.88464   1.90399
 Alpha virt. eigenvalues --    1.90867   1.91179   1.91965   1.93825   1.94435
 Alpha virt. eigenvalues --    1.96955   1.97202   2.00044   2.00286   2.02526
 Alpha virt. eigenvalues --    2.03480   2.04188   2.04893   2.06906   2.07539
 Alpha virt. eigenvalues --    2.09413   2.09976   2.11184   2.12050   2.13731
 Alpha virt. eigenvalues --    2.16525   2.16699   2.18502   2.19199   2.19354
 Alpha virt. eigenvalues --    2.20265   2.22326   2.23271   2.24241   2.25704
 Alpha virt. eigenvalues --    2.26660   2.27170   2.28453   2.29135   2.32333
 Alpha virt. eigenvalues --    2.33031   2.33732   2.34262   2.34642   2.35004
 Alpha virt. eigenvalues --    2.36425   2.37315   2.39439   2.39913   2.40896
 Alpha virt. eigenvalues --    2.42084   2.42780   2.44941   2.46576   2.47932
 Alpha virt. eigenvalues --    2.51510   2.55535   2.57464   2.57872   2.58555
 Alpha virt. eigenvalues --    2.61449   2.65158   2.67273   2.70225   2.70628
 Alpha virt. eigenvalues --    2.72119   2.73255   2.74976   2.76671   2.77803
 Alpha virt. eigenvalues --    2.79952   2.80762   2.83180   2.84967   2.85878
 Alpha virt. eigenvalues --    2.88736   2.91573   2.95068   2.96113   3.01892
 Alpha virt. eigenvalues --    3.02896   3.10332   3.13680   3.21556   3.28448
 Alpha virt. eigenvalues --    3.31926   3.47245   3.52363   4.06133   4.06756
 Alpha virt. eigenvalues --    4.08264   4.10724   4.14336   4.15727   4.17241
 Alpha virt. eigenvalues --    4.20092   4.25248   4.30360   4.30739   4.34265
 Alpha virt. eigenvalues --    4.36200   4.38496   4.39908   4.44198   4.45402
 Alpha virt. eigenvalues --    4.55564   4.56511   4.63012   4.82805   4.87368
          Condensed to atoms (all electrons):
               1          2          3          4          5          6
     1  C    4.916611   0.237555  -0.052095  -0.009629   0.000562  -0.000021
     2  O    0.237555   8.269413   0.266713  -0.067067   0.004878   0.000324
     3  C   -0.052095   0.266713   4.491225   0.478604  -0.008669  -0.039372
     4  C   -0.009629  -0.067067   0.478604   5.108060   0.499615  -0.007920
     5  C    0.000562   0.004878  -0.008669   0.499615   5.031483   0.490820
     6  C   -0.000021   0.000324  -0.039372  -0.007920   0.490820   4.749421
     7  N   -0.000000   0.000000  -0.000238   0.005819  -0.088491   0.227170
     8  C   -0.000000   0.000000   0.000030   0.000129   0.004989  -0.080513
     9  N    0.000001  -0.000017   0.003712  -0.000267   0.016489  -0.079806
    10  C   -0.000033   0.001387   0.005702  -0.039832  -0.037599   0.503290
    11  C    0.003271  -0.047541   0.562730  -0.067983  -0.048435  -0.061858
    12  N    0.000000  -0.000000   0.000001   0.000002  -0.000088   0.001105
    13  C    0.000000  -0.000000  -0.000000   0.000000  -0.000005   0.000189
    14  C   -0.000000  -0.000000   0.000000   0.000000  -0.000000   0.000005
    15  C    0.000000   0.000000  -0.000000  -0.000000   0.000000  -0.000000
    16  C   -0.000000   0.000000  -0.000000   0.000000  -0.000000  -0.000001
    17  O    0.000000   0.000000   0.000000  -0.000000  -0.000000   0.000000
    18  C    0.000000   0.000000  -0.000000   0.000000  -0.000000  -0.000000
    19  C   -0.000000  -0.000000   0.000000   0.000000  -0.000000   0.000033
    20  C   -0.000000   0.000000   0.000000  -0.000000   0.000000   0.000000
    21  C   -0.000000   0.000000   0.000000  -0.000000   0.000005   0.001569
    22  S   -0.000000   0.000000   0.000003  -0.000012   0.000432   0.011931
    23  H    0.375426  -0.038032  -0.004404   0.002135  -0.000171  -0.000007
    24  H    0.388229  -0.027816   0.002885   0.000718   0.000003  -0.000000
    25  H    0.374637  -0.038303  -0.004309   0.002187  -0.000198  -0.000008
    26  H    0.006411  -0.010255  -0.040283   0.363882  -0.030209   0.001844
    27  H   -0.000003  -0.000056   0.002483  -0.034397   0.353213  -0.027764
    28  H   -0.000000  -0.000000   0.000001  -0.000071  -0.001200  -0.017274
    29  H   -0.000127  -0.000784  -0.037690   0.007216  -0.000474   0.006640
    30  H    0.000000   0.000000  -0.000000   0.000000  -0.000002   0.000007
    31  H    0.000000  -0.000000  -0.000000  -0.000000   0.000000  -0.000000
    32  H   -0.000000  -0.000000   0.000000   0.000000  -0.000000  -0.000000
    33  H    0.000000   0.000000  -0.000000  -0.000000   0.000000   0.000000
    34  H    0.000000  -0.000000  -0.000000   0.000000  -0.000000   0.000000
    35  H   -0.000000  -0.000000   0.000000   0.000000  -0.000000   0.000000
    36  H    0.000000   0.000000   0.000000  -0.000000   0.000000   0.000000
    37  H    0.000000  -0.000000   0.000000  -0.000000  -0.000000  -0.000000
    38  H   -0.000000  -0.000000   0.000000   0.000000   0.000000  -0.000000
    39  H    0.000000  -0.000000  -0.000000   0.000000  -0.000000  -0.000000
               7          8          9         10         11         12
     1  C   -0.000000  -0.000000   0.000001  -0.000033   0.003271   0.000000
     2  O    0.000000   0.000000  -0.000017   0.001387  -0.047541  -0.000000
     3  C   -0.000238   0.000030   0.003712   0.005702   0.562730   0.000001
     4  C    0.005819   0.000129  -0.000267  -0.039832  -0.067983   0.000002
     5  C   -0.088491   0.004989   0.016489  -0.037599  -0.048435  -0.000088
     6  C    0.227170  -0.080513  -0.079806   0.503290  -0.061858   0.001105
     7  N    7.255288   0.347085  -0.146035  -0.031962   0.012161  -0.067206
     8  C    0.347085   4.406669   0.551381  -0.089511   0.001611   0.225986
     9  N   -0.146035   0.551381   6.977073   0.380229  -0.067022  -0.072417
    10  C   -0.031962  -0.089511   0.380229   4.582306   0.512381   0.001792
    11  C    0.012161   0.001611  -0.067022   0.512381   5.084708  -0.000184
    12  N   -0.067206   0.225986  -0.072417   0.001792  -0.000184   7.213814
    13  C    0.003012  -0.028029   0.000917   0.000234  -0.000011   0.294718
    14  C   -0.000276   0.001961   0.000680  -0.000006  -0.000000  -0.013989
    15  C    0.000000  -0.000169  -0.000008   0.000000   0.000000   0.004600
    16  C    0.000029   0.001736   0.000032   0.000001   0.000000  -0.044200
    17  O    0.000000   0.000002  -0.000000   0.000000  -0.000000  -0.000049
    18  C    0.000000   0.000000  -0.000000   0.000000   0.000000   0.000007
    19  C   -0.000098   0.001558  -0.000236  -0.000002  -0.000000  -0.029914
    20  C   -0.000002  -0.000133   0.000000  -0.000000   0.000000   0.004446
    21  C   -0.009262  -0.035978   0.000943  -0.000174  -0.000001   0.220005
    22  S   -0.084773  -0.006662  -0.000975  -0.000861  -0.000014  -0.116876
    23  H    0.000000   0.000000   0.000000   0.000006  -0.000035   0.000000
    24  H   -0.000000  -0.000000  -0.000000   0.000001  -0.000042  -0.000000
    25  H    0.000000   0.000000   0.000000  -0.000001   0.000004   0.000000
    26  H   -0.000088   0.000001   0.000004   0.001021   0.003515  -0.000000
    27  H   -0.005467  -0.000177  -0.000227   0.004196   0.000659  -0.000000
    28  H    0.306746  -0.021628   0.005506   0.005046  -0.000111  -0.002577
    29  H   -0.000083   0.000007  -0.001976  -0.033157   0.347072  -0.000004
    30  H    0.000516   0.001217   0.007838   0.000117  -0.000009  -0.041759
    31  H   -0.000000   0.000003  -0.000004   0.000000   0.000000   0.000193
    32  H    0.000000   0.000004  -0.000000   0.000000  -0.000000  -0.000082
    33  H   -0.000000   0.000001   0.000000  -0.000000  -0.000000  -0.000051
    34  H    0.000000   0.000000   0.000000   0.000000  -0.000000  -0.000003
    35  H   -0.000000  -0.000000   0.000000  -0.000000  -0.000000  -0.000003
    36  H   -0.000000   0.000000   0.000000  -0.000000  -0.000000  -0.000000
    37  H    0.000000  -0.000001  -0.000000   0.000000   0.000000  -0.000100
    38  H    0.000000   0.000014   0.000000  -0.000000   0.000000   0.000156
    39  H    0.000000   0.000003  -0.000000   0.000000   0.000000   0.000010
              13         14         15         16         17         18
     1  C    0.000000  -0.000000   0.000000  -0.000000   0.000000   0.000000
     2  O   -0.000000  -0.000000   0.000000   0.000000   0.000000   0.000000
     3  C   -0.000000   0.000000  -0.000000  -0.000000   0.000000  -0.000000
     4  C    0.000000   0.000000  -0.000000   0.000000  -0.000000   0.000000
     5  C   -0.000005  -0.000000   0.000000  -0.000000  -0.000000  -0.000000
     6  C    0.000189   0.000005  -0.000000  -0.000001   0.000000  -0.000000
     7  N    0.003012  -0.000276   0.000000   0.000029   0.000000   0.000000
     8  C   -0.028029   0.001961  -0.000169   0.001736   0.000002   0.000000
     9  N    0.000917   0.000680  -0.000008   0.000032  -0.000000  -0.000000
    10  C    0.000234  -0.000006   0.000000   0.000001   0.000000   0.000000
    11  C   -0.000011  -0.000000   0.000000   0.000000  -0.000000   0.000000
    12  N    0.294718  -0.013989   0.004600  -0.044200  -0.000049   0.000007
    13  C    4.886904   0.577553  -0.052139  -0.013531   0.004563   0.000052
    14  C    0.577553   4.975864   0.329918   0.415815  -0.088075  -0.006556
    15  C   -0.052139   0.329918   5.193702  -0.046615   0.001714  -0.009960
    16  C   -0.013531   0.415815  -0.046615   4.683926   0.292201  -0.032958
    17  O    0.004563  -0.088075   0.001714   0.292201   8.281449   0.229803
    18  C    0.000052  -0.006556  -0.009960  -0.032958   0.229803   4.929775
    19  C   -0.051888  -0.052487   0.008646   0.474846  -0.087617  -0.001761
    20  C    0.000277   0.008275  -0.000192  -0.055661  -0.004372   0.000395
    21  C   -0.044966  -0.036309   0.000377  -0.010497   0.004072  -0.000150
    22  S    0.005162   0.000354   0.000018   0.005053  -0.000132   0.000016
    23  H   -0.000000  -0.000000   0.000000  -0.000000   0.000000  -0.000000
    24  H   -0.000000  -0.000000   0.000000   0.000000   0.000000   0.000000
    25  H    0.000000   0.000000  -0.000000   0.000000   0.000000   0.000000
    26  H    0.000000  -0.000000   0.000000   0.000000  -0.000000   0.000000
    27  H    0.000000  -0.000000  -0.000000   0.000000   0.000000   0.000000
    28  H   -0.000212   0.000008   0.000000  -0.000008   0.000000  -0.000000
    29  H    0.000001   0.000000  -0.000000   0.000000  -0.000000   0.000000
    30  H    0.366122  -0.029048  -0.006259   0.003304  -0.000059  -0.000005
    31  H   -0.002315  -0.035459   0.375596   0.004052   0.000207   0.000339
    32  H   -0.000374  -0.034442   0.372553  -0.004296   0.000694  -0.009038
    33  H    0.000052  -0.036484   0.382134  -0.003839   0.003249  -0.000368
    34  H   -0.000415   0.007260  -0.009176  -0.006024  -0.044565   0.369805
    35  H   -0.000016  -0.000707   0.000886   0.000903  -0.040327   0.380570
    36  H    0.000008   0.000009   0.000160   0.002719  -0.027325   0.389843
    37  H    0.000046  -0.000258   0.000002  -0.003197   0.000671   0.000526
    38  H   -0.000018  -0.000081   0.000002   0.003917   0.000350  -0.000019
    39  H   -0.000031   0.000293   0.000002  -0.008576   0.004890  -0.000493
              19         20         21         22         23         24
     1  C   -0.000000  -0.000000  -0.000000  -0.000000   0.375426   0.388229
     2  O   -0.000000   0.000000   0.000000   0.000000  -0.038032  -0.027816
     3  C    0.000000   0.000000   0.000000   0.000003  -0.004404   0.002885
     4  C    0.000000  -0.000000  -0.000000  -0.000012   0.002135   0.000718
     5  C   -0.000000   0.000000   0.000005   0.000432  -0.000171   0.000003
     6  C    0.000033   0.000000   0.001569   0.011931  -0.000007  -0.000000
     7  N   -0.000098  -0.000002  -0.009262  -0.084773   0.000000  -0.000000
     8  C    0.001558  -0.000133  -0.035978  -0.006662   0.000000  -0.000000
     9  N   -0.000236   0.000000   0.000943  -0.000975   0.000000  -0.000000
    10  C   -0.000002  -0.000000  -0.000174  -0.000861   0.000006   0.000001
    11  C   -0.000000   0.000000  -0.000001  -0.000014  -0.000035  -0.000042
    12  N   -0.029914   0.004446   0.220005  -0.116876   0.000000  -0.000000
    13  C   -0.051888   0.000277  -0.044966   0.005162  -0.000000  -0.000000
[...]
    37  H   -0.000000   0.000001  -0.000000   0.000000   0.000000  -0.000098
    38  H   -0.000001   0.000002   0.000000  -0.000000  -0.000000  -0.000066
    39  H    0.000000   0.000001  -0.000000   0.000000  -0.000000   0.000005
              13         14         15         16         17         18
     1  C    0.000000   0.000000  -0.000000  -0.000000   0.000000  -0.000000
     2  O   -0.000000  -0.000000   0.000000   0.000000   0.000000   0.000000
     3  C    0.000000   0.000000   0.000000  -0.000000   0.000000  -0.000000
     4  C   -0.000000   0.000000  -0.000000   0.000000  -0.000000  -0.000000
     5  C   -0.000001  -0.000000  -0.000000   0.000000  -0.000000   0.000000
     6  C    0.000181   0.000009  -0.000000  -0.000001  -0.000000  -0.000000
     7  N    0.002060  -0.000199   0.000001  -0.000005  -0.000000  -0.000000
     8  C   -0.036021   0.000536  -0.000095   0.001281   0.000002   0.000000
     9  N   -0.017203   0.002275  -0.000011  -0.000022   0.000000  -0.000000
    10  C    0.000851  -0.000025  -0.000000   0.000001  -0.000000   0.000000
    11  C   -0.000006  -0.000001   0.000000   0.000000   0.000000   0.000000
    12  N    0.302251  -0.012799   0.004426  -0.048543  -0.000060   0.000012
    13  C    4.941874   0.562000  -0.057061  -0.012720   0.004796  -0.000166
    14  C    0.562000   4.923959   0.341646   0.434808  -0.094007  -0.002332
    15  C   -0.057061   0.341646   5.157627  -0.047573   0.002124  -0.001306
    16  C   -0.012720   0.434808  -0.047573   4.696375   0.273353  -0.036029
    17  O    0.004796  -0.094007   0.002124   0.273353   8.302245   0.226780
    18  C   -0.000166  -0.002332  -0.001306  -0.036029   0.226780   4.924741
    19  C   -0.044929  -0.064235   0.008566   0.504289  -0.075199  -0.008518
    20  C    0.000163   0.008173  -0.000155  -0.044463  -0.014369   0.000222
    21  C   -0.042148  -0.026540   0.000076  -0.017253   0.004119  -0.000262
    22  S    0.003740   0.000311   0.000014   0.003914  -0.000129   0.000017
    23  H    0.000000   0.000000  -0.000000  -0.000000   0.000000  -0.000000
    24  H   -0.000000  -0.000000   0.000000   0.000000   0.000000   0.000000
    25  H   -0.000000   0.000000  -0.000000   0.000000   0.000000   0.000000
    26  H    0.000000  -0.000000   0.000000  -0.000000  -0.000000   0.000000
    27  H    0.000000   0.000000  -0.000000  -0.000000   0.000000  -0.000000
    28  H   -0.000165   0.000005   0.000000  -0.000017   0.000000  -0.000000
    29  H   -0.000006   0.000000  -0.000000  -0.000000   0.000000  -0.000000
    30  H    0.361330  -0.029772  -0.004036   0.003091  -0.000053   0.000001
    31  H   -0.001443  -0.034258   0.375660   0.004249   0.000386  -0.000007
    32  H    0.000569  -0.028366   0.371681  -0.005421   0.000319   0.001275
    33  H    0.000130  -0.029660   0.378240  -0.004553   0.002181  -0.000204
    34  H   -0.000338   0.005321  -0.001185  -0.001679  -0.040295   0.375139
    35  H    0.000014  -0.001209   0.000330  -0.002482  -0.040324   0.376729
    36  H    0.000009  -0.000030  -0.000092   0.003864  -0.030856   0.388636
    37  H    0.000037  -0.000214   0.000001  -0.000420   0.000428   0.000044
    38  H    0.000018  -0.000123   0.000002   0.001421   0.000268   0.000055
    39  H   -0.000048   0.000639  -0.000007  -0.009696   0.010245  -0.003045
              19         20         21         22         23         24
     1  C    0.000000  -0.000000  -0.000000  -0.000000   0.372874   0.392654
     2  O   -0.000000   0.000000   0.000000   0.000000  -0.037509  -0.033665
     3  C    0.000000  -0.000000   0.000000   0.000001  -0.003861   0.003317
     4  C   -0.000000   0.000000  -0.000000  -0.000004   0.003173   0.000370
     5  C   -0.000000  -0.000000   0.000006  -0.000115  -0.000171   0.000005
     6  C    0.000024  -0.000000   0.001207   0.007743  -0.000008  -0.000000
     7  N   -0.000013   0.000002  -0.003755  -0.067033   0.000000  -0.000000
     8  C    0.002222  -0.000103  -0.031631  -0.011046   0.000000  -0.000000
     9  N   -0.000147   0.000000   0.001539  -0.000209   0.000000  -0.000000
    10  C    0.000001  -0.000000  -0.000228  -0.000467   0.000011  -0.000001
    11  C   -0.000000  -0.000000   0.000002   0.000001   0.000002  -0.000081
    12  N   -0.024557   0.004393   0.228134  -0.090118   0.000000  -0.000000
    13  C   -0.044929   0.000163  -0.042148   0.003740   0.000000  -0.000000
    14  C   -0.064235   0.008173  -0.026540   0.000311   0.000000  -0.000000
    15  C    0.008566  -0.000155   0.000076   0.000014  -0.000000   0.000000
    16  C    0.504289  -0.044463  -0.017253   0.003914  -0.000000   0.000000
    17  O   -0.075199  -0.014369   0.004119  -0.000129   0.000000   0.000000
    18  C   -0.008518   0.000222  -0.000262   0.000017  -0.000000   0.000000
    19  C    5.123288   0.372655   0.387192  -0.111588   0.000000  -0.000000
    20  C    0.372655   5.167397  -0.069242  -0.011418   0.000000   0.000000
    21  C    0.387192  -0.069242   4.970836   0.456000  -0.000000  -0.000000
    22  S   -0.111588  -0.011418   0.456000  16.014248   0.000000  -0.000000
    23  H    0.000000   0.000000  -0.000000   0.000000   0.581439  -0.029148
    24  H   -0.000000   0.000000  -0.000000  -0.000000  -0.029148   0.508471
    25  H   -0.000000  -0.000000  -0.000000   0.000000  -0.048028  -0.029104
    26  H   -0.000000   0.000000  -0.000000  -0.000000   0.001113  -0.000024
    27  H    0.000000   0.000000   0.000000  -0.000033   0.000002  -0.000000
    28  H    0.000628   0.000012  -0.001620   0.078472   0.000000  -0.000000
    29  H   -0.000000   0.000000  -0.000000  -0.000000   0.000021  -0.000022
    30  H    0.000126   0.000009   0.001989  -0.000156   0.000000  -0.000000
    31  H   -0.000081   0.000001  -0.000012  -0.000000   0.000000   0.000000
    32  H   -0.000102   0.000002   0.000012  -0.000001  -0.000000  -0.000000
    33  H   -0.000004   0.000002   0.000009  -0.000001   0.000000  -0.000000
    34  H    0.000508   0.000124   0.000050  -0.000004   0.000000  -0.000000
    35  H    0.004348   0.002417  -0.000381   0.000027   0.000000   0.000000
    36  H   -0.000054  -0.000079   0.000008  -0.000001   0.000000   0.000000
    37  H   -0.022944   0.371460  -0.004666   0.001864  -0.000000  -0.000000
    38  H   -0.023600   0.376406  -0.007365   0.003030   0.000000   0.000000
    39  H   -0.039146   0.370371   0.006561   0.002074   0.000000   0.000000
              25         26         27         28         29         30
     1  C    0.372859   0.006041  -0.000003  -0.000000  -0.000121   0.000000
     2  O   -0.037500  -0.007475  -0.000040  -0.000000  -0.000558  -0.000000
     3  C   -0.003864  -0.037649   0.002208  -0.000001  -0.034446   0.000000
     4  C    0.003196   0.362513  -0.033479  -0.000050   0.006196   0.000000
     5  C   -0.000169  -0.030938   0.357426  -0.001209  -0.000304  -0.000002
     6  C   -0.000009   0.001711  -0.027021  -0.008061   0.005670   0.000206
     7  N    0.000000  -0.000103  -0.004957   0.249823  -0.000091   0.001016
     8  C    0.000000   0.000001  -0.000139  -0.021566   0.000092  -0.007138
     9  N    0.000000   0.000004  -0.000142   0.003659  -0.002110   0.024806
    10  C    0.000013   0.001026   0.003664   0.004594  -0.029798   0.000361
    11  C    0.000003   0.003230   0.000421  -0.000057   0.348012  -0.000112
    12  N    0.000000  -0.000000  -0.000000  -0.004408  -0.000004  -0.044232
    13  C   -0.000000   0.000000   0.000000  -0.000165  -0.000006   0.361330
    14  C    0.000000  -0.000000   0.000000   0.000005   0.000000  -0.029772
    15  C   -0.000000   0.000000  -0.000000   0.000000  -0.000000  -0.004036
    16  C    0.000000  -0.000000  -0.000000  -0.000017  -0.000000   0.003091
    17  O    0.000000  -0.000000   0.000000   0.000000   0.000000  -0.000053
    18  C    0.000000   0.000000  -0.000000  -0.000000  -0.000000   0.000001
    19  C   -0.000000  -0.000000   0.000000   0.000628  -0.000000   0.000126
    20  C   -0.000000   0.000000   0.000000   0.000012   0.000000   0.000009
    21  C   -0.000000  -0.000000   0.000000  -0.001620  -0.000000   0.001989
    22  S    0.000000  -0.000000  -0.000033   0.078472  -0.000000  -0.000156
    23  H   -0.048028   0.001113   0.000002   0.000000   0.000021   0.000000
    24  H   -0.029104  -0.000024  -0.000000  -0.000000  -0.000022  -0.000000
    25  H    0.581332   0.001106   0.000002   0.000000   0.000020   0.000000
    26  H    0.001106   0.540034  -0.003967  -0.000002  -0.000120   0.000000
    27  H    0.000002  -0.003967   0.526864   0.001270   0.000013   0.000000
    28  H    0.000000  -0.000002   0.001270   0.307302   0.000001  -0.000019
    29  H    0.000020  -0.000120   0.000013   0.000001   0.525816   0.000037
    30  H    0.000000   0.000000   0.000000  -0.000019   0.000037   0.422903
    31  H   -0.000000   0.000000  -0.000000   0.000000  -0.000000   0.004101
    32  H    0.000000  -0.000000  -0.000000   0.000000  -0.000000   0.000073
    33  H   -0.000000  -0.000000  -0.000000  -0.000000  -0.000000   0.000033
    34  H   -0.000000  -0.000000  -0.000000   0.000000  -0.000000   0.000007
    35  H   -0.000000   0.000000   0.000000  -0.000000   0.000000  -0.000001
    36  H    0.000000  -0.000000   0.000000   0.000000   0.000000  -0.000000
    37  H    0.000000   0.000000  -0.000000   0.000002  -0.000000   0.000000
    38  H   -0.000000  -0.000000  -0.000000   0.000003   0.000000   0.000000
    39  H   -0.000000   0.000000   0.000000  -0.000000   0.000000   0.000000
              31         32         33         34         35         36
     1  C   -0.000000  -0.000000  -0.000000  -0.000000  -0.000000   0.000000
     2  O   -0.000000   0.000000   0.000000  -0.000000  -0.000000   0.000000
     3  C   -0.000000  -0.000000  -0.000000   0.000000  -0.000000   0.000000
     4  C   -0.000000  -0.000000  -0.000000   0.000000   0.000000   0.000000
     5  C    0.000000   0.000000   0.000000   0.000000  -0.000000  -0.000000
     6  C   -0.000000   0.000000   0.000000   0.000000  -0.000000   0.000000
     7  N   -0.000000  -0.000000  -0.000000   0.000000   0.000000  -0.000000
     8  C    0.000012   0.000001   0.000000  -0.000000   0.000000   0.000000
     9  N   -0.000028  -0.000000  -0.000000  -0.000000   0.000000   0.000000
    10  C   -0.000000   0.000000  -0.000000  -0.000000   0.000000  -0.000000
    11  C    0.000000   0.000000   0.000000  -0.000000   0.000000  -0.000000
    12  N    0.000107  -0.000064  -0.000063  -0.000011   0.000002  -0.000000
    13  C   -0.001443   0.000569   0.000130  -0.000338   0.000014   0.000009
    14  C   -0.034258  -0.028366  -0.029660   0.005321  -0.001209  -0.000030
    15  C    0.375660   0.371681   0.378240  -0.001185   0.000330  -0.000092
    16  C    0.004249  -0.005421  -0.004553  -0.001679  -0.002482   0.003864
    17  O    0.000386   0.000319   0.002181  -0.040295  -0.040324  -0.030856
    18  C   -0.000007   0.001275  -0.000204   0.375139   0.376729   0.388636
    19  C   -0.000081  -0.000102  -0.000004   0.000508   0.004348  -0.000054
    20  C    0.000001   0.000002   0.000002   0.000124   0.002417  -0.000079
    21  C   -0.000012   0.000012   0.000009   0.000050  -0.000381   0.000008
    22  S   -0.000000  -0.000001  -0.000001  -0.000004   0.000027  -0.000001
    23  H    0.000000  -0.000000   0.000000   0.000000   0.000000   0.000000
    24  H    0.000000  -0.000000  -0.000000  -0.000000   0.000000   0.000000
    25  H   -0.000000   0.000000  -0.000000  -0.000000  -0.000000   0.000000
    26  H    0.000000  -0.000000  -0.000000  -0.000000   0.000000  -0.000000
    27  H   -0.000000  -0.000000  -0.000000  -0.000000   0.000000   0.000000
    28  H    0.000000   0.000000  -0.000000   0.000000  -0.000000   0.000000
    29  H   -0.000000  -0.000000  -0.000000  -0.000000   0.000000   0.000000
    30  H    0.004101   0.000073   0.000033   0.000007  -0.000001  -0.000000
    31  H    0.518215  -0.025201  -0.023331  -0.000049   0.000002  -0.000002
    32  H   -0.025201   0.536556  -0.030422   0.001900  -0.000005  -0.000017
    33  H   -0.023331  -0.030422   0.509169   0.000020   0.000007   0.000002
    34  H   -0.000049   0.001900   0.000020   0.567053  -0.042422  -0.028284
    35  H    0.000002  -0.000005   0.000007  -0.042422   0.562258  -0.028588
    36  H   -0.000002  -0.000017   0.000002  -0.028284  -0.028588   0.502940
    37  H   -0.000000  -0.000000   0.000000  -0.000002   0.000307  -0.000021
    38  H   -0.000000   0.000000  -0.000000  -0.000002   0.000053   0.000002
    39  H    0.000000  -0.000000   0.000000   0.000432  -0.002270  -0.000014
              37         38         39
     1  C   -0.000000  -0.000000   0.000000
     2  O    0.000000   0.000000  -0.000000
     3  C   -0.000000   0.000000  -0.000000
     4  C   -0.000000  -0.000000   0.000000
     5  C   -0.000000   0.000000   0.000000
     6  C    0.000000   0.000000  -0.000000
     7  N   -0.000000  -0.000001   0.000000
     8  C    0.000001   0.000002   0.000001
     9  N   -0.000000   0.000000  -0.000000
    10  C    0.000000  -0.000000   0.000000
    11  C    0.000000  -0.000000  -0.000000
    12  N   -0.000098  -0.000066   0.000005
    13  C    0.000037   0.000018  -0.000048
    14  C   -0.000214  -0.000123   0.000639
    15  C    0.000001   0.000002  -0.000007
    16  C   -0.000420   0.001421  -0.009696
    17  O    0.000428   0.000268   0.010245
    18  C    0.000044   0.000055  -0.003045
    19  C   -0.022944  -0.023600  -0.039146
    20  C    0.371460   0.376406   0.370371
    21  C   -0.004666  -0.007365   0.006561
    22  S    0.001864   0.003030   0.002074
    23  H   -0.000000   0.000000   0.000000
    24  H   -0.000000   0.000000   0.000000
    25  H    0.000000  -0.000000  -0.000000
    26  H    0.000000  -0.000000   0.000000
    27  H   -0.000000  -0.000000   0.000000
    28  H    0.000002   0.000003  -0.000000
    29  H   -0.000000   0.000000   0.000000
    30  H    0.000000   0.000000   0.000000
    31  H   -0.000000  -0.000000   0.000000
    32  H   -0.000000   0.000000  -0.000000
    33  H    0.000000  -0.000000   0.000000
    34  H   -0.000002  -0.000002   0.000432
    35  H    0.000307   0.000053  -0.002270
    36  H   -0.000021   0.000002  -0.000014
    37  H    0.513829  -0.026784  -0.027238
    38  H   -0.026784   0.491760  -0.023187
    39  H   -0.027238  -0.023187   0.534769
 Mulliken charges:
               1
     1  C   -0.238591
     2  O   -0.538282
     3  C    0.358801
     4  C   -0.244187
     5  C   -0.173977
     6  C    0.331325
     7  N   -0.799819
     8  C    0.797552
     9  N   -0.626036
    10  C    0.226481
    11  C   -0.235491
    12  N   -0.635548
    13  C    0.032234
    14  C    0.044087
    15  C   -0.528869
    16  C    0.304230
    17  O   -0.531953
    18  C   -0.241781
    19  C    0.011270
    20  C   -0.533980
    21  C    0.147364
    22  S   -0.279132
    23  H    0.160091
    24  H    0.187228
    25  H    0.160142
    26  H    0.163496
    27  H    0.177911
    28  H    0.391405
    29  H    0.181700
    30  H    0.265429
    31  H    0.181679
    32  H    0.177214
    33  H    0.198446
    34  H    0.163717
    35  H    0.171188
    36  H    0.192577
    37  H    0.194416
    38  H    0.208108
    39  H    0.179554
 Sum of Mulliken charges =  -0.00000
 Mulliken charges with hydrogens summed into heavy atoms:
               1
     1  C    0.268870
     2  O   -0.538282
     3  C    0.358801
     4  C   -0.080690
     5  C    0.003933
     6  C    0.331325
     7  N   -0.408414
     8  C    0.797552
     9  N   -0.626036
    10  C    0.226481
    11  C   -0.053790
    12  N   -0.635548
    13  C    0.297663
    14  C    0.044087
    15  C    0.028469
    16  C    0.304230
    17  O   -0.531953
    18  C    0.285701
    19  C    0.011270
    20  C    0.048098
    21  C    0.147364
    22  S   -0.279132
 Electronic spatial extent (au):  <R**2>=          10319.2452
 Charge=              0.0000 electrons
 Dipole moment (field-independent basis, Debye):
    X=             -1.0981    Y=             -1.5790    Z=              0.9974  Tot=              2.1665
 Quadrupole moment (field-independent basis, Debye-Ang):
   XX=           -100.2698   YY=           -136.4483   ZZ=           -138.4411
   XY=             16.6786   XZ=             -7.0052   YZ=             -0.9733
 Traceless Quadrupole moment (field-independent basis, Debye-Ang):
   XX=             24.7833   YY=            -11.3952   ZZ=            -13.3880
   XY=             16.6786   XZ=             -7.0052   YZ=             -0.9733
 Octapole moment (field-independent basis, Debye-Ang**2):
  XXX=             75.9731  YYY=            -37.4894  ZZZ=              1.5923  XYY=              3.0750
  XXY=              8.3305  XXZ=             49.0783  XZZ=            -14.3968  YZZ=             -7.0399
  YYZ=             -1.4773  XYZ=              6.8304
 Hexadecapole moment (field-independent basis, Debye-Ang**3):
 XXXX=          -9283.0514 YYYY=          -2017.0887 ZZZZ=           -236.9927 XXXY=            193.3084
 XXXZ=           -231.2328 YYYX=            115.5103 YYYZ=              2.3794 ZZZX=             -4.5700
 ZZZY=             -1.1177 XXYY=          -2206.9290 XXZZ=          -1962.3061 YYZZ=           -387.9735
 XXYZ=            -40.7392 YYXZ=             -1.2840 ZZXY=              5.8122
 N-N= 1.861665597395D+03 E-N=-6.841111790709D+03  KE= 1.323487647701D+03
 No NMR shielding tensors so no spin-rotation constants.
 Leave Link  601 at Mon Jun  9 11:54:04 2025, MaxMem=  5368709120 cpu:               2.9 elap:               0.2
 (Enter /opt/software/custom/apps/gaussian/x86_64-legacy/g16/l9999.exe)
 1\1\GINC-C02\FOpt\RM062X\6-31G(d)\C16H17N3O2S1\PHFMATIAS\09-Jun-2025\0
 \\#p opt M062X/6-31g(d)\\C16H17N3O2S\\0,1\C,7.0961338165,-0.7244456273
 ,-0.0288838173\O,5.855382675,-1.3898409805,-0.0311875668\C,4.722781946
 2,-0.6294205332,-0.065207518\C,4.7403696773,0.7824282564,-0.0963893612
 \C,3.5610175764,1.5143741661,-0.1310033665\C,2.3673907406,0.8013889476
 ,-0.1342592715\N,1.0411428769,1.185162905,-0.1645847893\C,0.3137105273
 ,0.0404291262,-0.1432249104\N,1.0333281555,-1.0528453147,-0.107997254\
 C,2.3389702985,-0.6073100304,-0.1015467687\C,3.5271131132,-1.337092905
 ,-0.0672520367\N,-1.116491437,-0.0174144832,-0.1759818746\C,-1.6003262
 41,-1.3112884615,-0.2472534642\C,-2.9224050884,-1.6027391106,-0.257405
 6971\C,-3.4301857966,-3.0131502742,-0.3482569423\C,-3.8238439466,-0.50
 4345981,-0.2062799431\O,-5.1590382278,-0.7978859126,-0.2283675381\C,-5
 .7548346271,-0.8120614145,1.0648174248\C,-3.3816459117,0.7942705762,-0
 .1715004809\C,-4.3613279293,1.9311296886,-0.1798847744\C,-1.9694230679
 ,1.0866107908,-0.1365213866\S,-1.4703396707,2.6986867596,-0.0395858548
 \H,7.2062898122,-0.0802534206,0.8524605653\H,7.8570089386,-1.504590870
 1,-0.0008517423\H,7.2309769467,-0.1202334816,-0.9347498724\H,5.6827687
 476,1.315787174,-0.0937205702\H,3.5811070487,2.5985364839,-0.155160321
 3\H,0.6186249685,2.1123218448,-0.1593167202\H,3.5353356846,-2.42036166
 5,-0.0424893879\H,-0.8281467455,-2.0668750183,-0.2849444599\H,-2.59930
 91727,-3.7175727421,-0.4249871678\H,-4.024157702,-3.2796879905,0.53182
 707\H,-4.0767598705,-3.1338374321,-1.2216949691\H,-5.2651333611,-1.549
 182111,1.7120742099\H,-5.692834101,0.1754629033,1.5354498941\H,-6.7996
 129784,-1.0871422357,0.9202988126\H,-4.3199656291,2.4901508566,0.76055
 92119\H,-4.1037194383,2.6399535139,-0.9710348162\H,-5.3723526077,1.557
 0840026,-0.3454625446\\Version=EM64L-G16RevB.01\State=1-A\HF=-1332.409
 0679\RMSD=4.230e-09\RMSF=2.259e-06\Dipole=-0.4365534,-0.6132764,0.3998
 005\Quadrupole=18.6720889,-8.874559,-9.7975299,11.9313069,-5.6467023,-
 0.8085045\PG=C01 [X(C16H17N3O2S1)]\\@


 IT'S WHAT A FELLER THINKS HE KNOWS THAT HURTS HIM...
                    ------
           KIN HUBBARD
 Job cpu time:       0 days  5 hours 50 minutes 44.2 seconds.
 Elapsed time:       0 days  0 hours 17 minutes 47.0 seconds.
 File lengths (MBytes):  RWF=     96 Int=      0 D2E=      0 Chk=     12 Scr=      1
 Normal termination of Gaussian 16 at Mon Jun  9 11:54:04 2025.
