 Entering Gaussian System, Link 0=g16
 Input=Impureza3.gjf
 Output=Impureza3.log
 Initial command:
 /opt/software/custom/apps/gaussian/x86_64-legacy/g16/l1.exe "/scratch/global/Gau-478378.inp" -scrdir="/scratch/global/"
 Entering Link 1 = /opt/software/custom/apps/gaussian/x86_64-legacy/g16/l1.exe PID=    478379.
  
 Copyright (c) 1988-2017, Gaussian, Inc.  All Rights Reserved.
  
 This is part of the Gaussian(R) 16 program.  It is based on
 the Gaussian(R) 09 system (copyright 2009, Gaussian, Inc.),
 the Gaussian(R) 03 system (copyright 2003, Gaussian, Inc.),
 the Gaussian(R) 98 system (copyright 1998, Gaussian, Inc.),
 the Gaussian(R) 94 system (copyright 1995, Gaussian, Inc.),
 the Gaussian 92(TM) system (copyright 1992, Gaussian, Inc.),
 the Gaussian 90(TM) system (copyright 1990, Gaussian, Inc.),
 the Gaussian 88(TM) system (copyright 1988, Gaussian, Inc.),
 the Gaussian 86(TM) system (copyright 1986, Carnegie Mellon
 University), and the Gaussian 82(TM) system (copyright 1983,
 Carnegie Mellon University). Gaussian is a federally registered
 trademark of Gaussian, Inc.
  
 This software contains proprietary and confidential information,
 including trade secrets, belonging to Gaussian, Inc.
  
 This software is provided under written license and may be
 used, copied, transmitted, or stored only in accord with that
 written license.
  
 The following legend is applicable only to US Government
 contracts under FAR:
  
                    RESTRICTED RIGHTS LEGEND
  
 Use, reproduction and disclosure by the US Government is
 subject to restrictions as set forth in subparagraphs (a)
 and (c) of the Commercial Computer Software - Restricted
 Rights clause in FAR 52.227-19.
  
 Gaussian, Inc.
 340 Quinnipiac St., Bldg. 40, Wallingford CT 06492
  
  
 ---------------------------------------------------------------
 Warning -- This program may not be used in any manner that
 competes with the business of Gaussian, Inc. or will provide
 assistance to any competitor of Gaussian, Inc.  The licensee
 of this program is prohibited from giving any competitor of
 Gaussian, Inc. access to this program.  By using this program,
 the user acknowledges that Gaussian, Inc. is engaged in the
 business of creating and licensing software in the field of
 computational chemistry and represents and warrants to the
 licensee that it is not a competitor of Gaussian, Inc. and that
 it will not use this program in any manner prohibited above.
 ---------------------------------------------------------------
  

 Cite this work as:
 Gaussian 16, Revision B.01,
 M. J. Frisch, G. W. Trucks, H. B. Schlegel, G. E. Scuseria, 
 M. A. Robb, J. R. Cheeseman, G. Scalmani, V. Barone, 
 G. A. Petersson, H. Nakatsuji, X. Li, M. Caricato, A. V. Marenich, 
 J. Bloino, B. G. Janesko, R. Gomperts, B. Mennucci, H. P. Hratchian, 
 J. V. Ortiz, A. F. Izmaylov, J. L. Sonnenberg, D. Williams-Young, 
 F. Ding, F. Lipparini, F. Egidi, J. Goings, B. Peng, A. Petrone, 
 T. Henderson, D. Ranasinghe, V. G. Zakrzewski, J. Gao, N. Rega, 
 G. Zheng, W. Liang, M. Hada, M. Ehara, K. Toyota, R. Fukuda, 
 J. Hasegawa, M. Ishida, T. Nakajima, Y. Honda, O. Kitao, H. Nakai, 
 T. Vreven, K. Throssell, J. A. Montgomery, Jr., J. E. Peralta, 
 F. Ogliaro, M. J. Bearpark, J. J. Heyd, E. N. Brothers, K. N. Kudin, 
 V. N. Staroverov, T. A. Keith, R. Kobayashi, J. Normand, 
 K. Raghavachari, A. P. Rendell, J. C. Burant, S. S. Iyengar, 
 J. Tomasi, M. Cossi, J. M. Millam, M. Klene, C. Adamo, R. Cammi, 
 J. W. Ochterski, R. L. Martin, K. Morokuma, O. Farkas, 
 J. B. Foresman, and D. J. Fox, Gaussian, Inc., Wallingford CT, 2016.
 
 ******************************************
 Gaussian 16:  EM64L-G16RevB.01 20-Dec-2017
                 9-Jun-2025 
 ******************************************
 %nprocshared=20
 Will use up to   20 processors via shared memory.
 %mem=40GB
 %chk=Impureza3.chk
 ---------------------
 #p opt M062X/6-31g(d)
 ---------------------
 1/18=20,19=15,26=3,38=1/1,3;
 2/9=110,12=2,17=6,18=5,40=1/2;
 3/5=1,6=6,7=1,11=2,25=1,30=1,71=1,74=-55/1,2,3;
 4//1;
 5/5=2,38=5/2;
 6/7=2,8=2,9=2,10=2,28=1/1;
 7//1,2,3,16;
 1/18=20,19=15,26=3/3(2);
 2/9=110/2;
 99//99;
 2/9=110/2;
 3/5=1,6=6,7=1,11=2,25=1,30=1,71=1,74=-55/1,2,3;
 4/5=5,16=3,69=1/1;
 5/5=2,38=5/2;
 7//1,2,3,16;
 1/18=20,19=15,26=3/3(-5);
 2/9=110/2;
 6/7=2,8=2,9=2,10=2,19=2,28=1/1;
 99/9=1/99;
 Leave Link    1 at Mon Jun  9 11:54:04 2025, MaxMem=  5368709120 cpu:               0.7 elap:               0.0
 (Enter /opt/software/custom/apps/gaussian/x86_64-legacy/g16/l101.exe)
 ----------
 C17H18N3O4
 ----------
 Symbolic Z-matrix:
 Charge =  0 Multiplicity = 2
 C                     7.1047    0.012     0.175 
 O                     5.9154   -0.7785    0.2259 
 C                     4.7308   -0.1185    0.1257 
 C                     4.7205    1.2661   -0.0189 
 C                     3.5271    1.9485   -0.1216 
 C                     2.3268    1.2537   -0.0815 
 N                     0.9985    1.6318   -0.1562 
 C                     0.2475    0.4919   -0.0578 
 N                     1.0349   -0.5487    0.0713 
 C                     2.3282   -0.1454    0.0639 
 C                     3.5462   -0.8262    0.1623 
 N                    -1.1212    0.4451   -0.089 
 C                    -1.7337   -0.7438   -0.1033 
 C                    -0.9286   -1.9843   -0.0852 
 O                    -0.4715   -2.5075   -1.2393 
 O                    -0.6795   -2.5312    0.9702 
 C                    -3.1206   -0.8225   -0.1345 
 C                    -3.8099   -2.1625   -0.15 
 C                    -3.8652    0.3555   -0.1507 
 O                    -5.2213    0.3181   -0.1808 
 C                    -5.8978    0.3       1.0778 
 C                    -3.1865    1.5731   -0.135 
 C                    -3.9526    2.8708   -0.1518 
 C                    -1.8075    1.5795   -0.0989 
 H                     7.9761   -0.6365    0.2656 
 H                     7.1461    0.5455   -0.7746 
 H                     7.0992    0.7299    0.9951 
 H                     5.6535    1.8091   -0.0504 
 H                     3.5265    3.0227   -0.2329 
 H                     0.6621    2.5358   -0.2588 
 H                     3.5597   -1.9008    0.2689 
 H                     0.0503   -3.3192   -1.1771 
 H                    -4.0481   -2.4604    0.8711 
 H                    -4.7291   -2.0915   -0.7315 
 H                    -3.1512   -2.9047   -0.6008 
 H                    -6.9746    0.2702    0.9111 
 H                    -5.5929   -0.5817    1.6415 
 H                    -5.642     1.1976    1.6408 
 H                    -4.1604    3.1832    0.8716 
 H                    -3.3596    3.6363   -0.6521 
 H                    -4.8919    2.7313   -0.6869 
 H                    -1.2795    2.5215   -0.0863 
 
 ITRead=  0  0  0  0  0  0  0  0  0  0  0  0  0  0  0  0  0  0  0  0
 ITRead=  0  0  0  0  0  0  0  0  0  0  0  0  0  0  0  0  0  0  0  0
 ITRead=  0  0
 MicOpt= -1 -1 -1 -1 -1 -1 -1 -1 -1 -1 -1 -1 -1 -1 -1 -1 -1 -1 -1 -1
 MicOpt= -1 -1 -1 -1 -1 -1 -1 -1 -1 -1 -1 -1 -1 -1 -1 -1 -1 -1 -1 -1
 MicOpt= -1 -1
 NAtoms=     42 NQM=       42 NQMF=       0 NMMI=      0 NMMIF=      0
                NMic=       0 NMicF=      0.
                    Isotopes and Nuclear Properties:
 (Nuclear quadrupole moments (NQMom) in fm**2, nuclear magnetic moments (NMagM)
  in nuclear magnetons)

  Atom         1           2           3           4           5           6           7           8           9          10
 IAtWgt=          12          16          12          12          12          12          14          12          14          12
 AtmWgt=  12.0000000  15.9949146  12.0000000  12.0000000  12.0000000  12.0000000  14.0030740  12.0000000  14.0030740  12.0000000
 NucSpn=           0           0           0           0           0           0           2           0           2           0
 AtZEff=  -0.0000000  -0.0000000  -0.0000000  -0.0000000  -0.0000000  -0.0000000  -0.0000000  -0.0000000  -0.0000000  -0.0000000
 NQMom=    0.0000000   0.0000000   0.0000000   0.0000000   0.0000000   0.0000000   2.0440000   0.0000000   2.0440000   0.0000000
 NMagM=    0.0000000   0.0000000   0.0000000   0.0000000   0.0000000   0.0000000   0.4037610   0.0000000   0.4037610   0.0000000
 AtZNuc=   6.0000000   8.0000000   6.0000000   6.0000000   6.0000000   6.0000000   7.0000000   6.0000000   7.0000000   6.0000000

  Atom        11          12          13          14          15          16          17          18          19          20
 IAtWgt=          12          14          12          12          16          16          12          12          12          16
 AtmWgt=  12.0000000  14.0030740  12.0000000  12.0000000  15.9949146  15.9949146  12.0000000  12.0000000  12.0000000  15.9949146
 NucSpn=           0           2           0           0           0           0           0           0           0           0
 AtZEff=  -0.0000000  -0.0000000  -0.0000000  -0.0000000  -0.0000000  -0.0000000  -0.0000000  -0.0000000  -0.0000000  -0.0000000
 NQMom=    0.0000000   2.0440000   0.0000000   0.0000000   0.0000000   0.0000000   0.0000000   0.0000000   0.0000000   0.0000000
 NMagM=    0.0000000   0.4037610   0.0000000   0.0000000   0.0000000   0.0000000   0.0000000   0.0000000   0.0000000   0.0000000
 AtZNuc=   6.0000000   7.0000000   6.0000000   6.0000000   8.0000000   8.0000000   6.0000000   6.0000000   6.0000000   8.0000000

  Atom        21          22          23          24          25          26          27          28          29          30
 IAtWgt=          12          12          12          12           1           1           1           1           1           1
 AtmWgt=  12.0000000  12.0000000  12.0000000  12.0000000   1.0078250   1.0078250   1.0078250   1.0078250   1.0078250   1.0078250
 NucSpn=           0           0           0           0           1           1           1           1           1           1
 AtZEff=  -0.0000000  -0.0000000  -0.0000000  -0.0000000  -0.0000000  -0.0000000  -0.0000000  -0.0000000  -0.0000000  -0.0000000
 NQMom=    0.0000000   0.0000000   0.0000000   0.0000000   0.0000000   0.0000000   0.0000000   0.0000000   0.0000000   0.0000000
 NMagM=    0.0000000   0.0000000   0.0000000   0.0000000   2.7928460   2.7928460   2.7928460   2.7928460   2.7928460   2.7928460
 AtZNuc=   6.0000000   6.0000000   6.0000000   6.0000000   1.0000000   1.0000000   1.0000000   1.0000000   1.0000000   1.0000000

  Atom        31          32          33          34          35          36          37          38          39          40
 IAtWgt=           1           1           1           1           1           1           1           1           1           1
 AtmWgt=   1.0078250   1.0078250   1.0078250   1.0078250   1.0078250   1.0078250   1.0078250   1.0078250   1.0078250   1.0078250
 NucSpn=           1           1           1           1           1           1           1           1           1           1
 AtZEff=  -0.0000000  -0.0000000  -0.0000000  -0.0000000  -0.0000000  -0.0000000  -0.0000000  -0.0000000  -0.0000000  -0.0000000
 NQMom=    0.0000000   0.0000000   0.0000000   0.0000000   0.0000000   0.0000000   0.0000000   0.0000000   0.0000000   0.0000000
 NMagM=    2.7928460   2.7928460   2.7928460   2.7928460   2.7928460   2.7928460   2.7928460   2.7928460   2.7928460   2.7928460
 AtZNuc=   1.0000000   1.0000000   1.0000000   1.0000000   1.0000000   1.0000000   1.0000000   1.0000000   1.0000000   1.0000000

  Atom        41          42
 IAtWgt=           1           1
 AtmWgt=   1.0078250   1.0078250
 NucSpn=           1           1
 AtZEff=  -0.0000000  -0.0000000
 NQMom=    0.0000000   0.0000000
 NMagM=    2.7928460   2.7928460
 AtZNuc=   1.0000000   1.0000000
 Leave Link  101 at Mon Jun  9 11:54:04 2025, MaxMem=  5368709120 cpu:               6.8 elap:               0.4
 (Enter /opt/software/custom/apps/gaussian/x86_64-legacy/g16/l103.exe)

 GradGradGradGradGradGradGradGradGradGradGradGradGradGradGradGradGradGrad
 Berny optimization.
 Initialization pass.
                           ----------------------------
                           !    Initial Parameters    !
                           ! (Angstroms and Degrees)  !
 --------------------------                            --------------------------
 ! Name  Definition              Value          Derivative Info.                !
 --------------------------------------------------------------------------------
 ! R1    R(1,2)                  1.429          estimate D2E/DX2                !
 ! R2    R(1,25)                 1.09           estimate D2E/DX2                !
 ! R3    R(1,26)                 1.09           estimate D2E/DX2                !
 ! R4    R(1,27)                 1.0899         estimate D2E/DX2                !
 ! R5    R(2,3)                  1.3597         estimate D2E/DX2                !
 ! R6    R(3,4)                  1.3922         estimate D2E/DX2                !
 ! R7    R(3,11)                 1.3804         estimate D2E/DX2                !
 ! R8    R(4,5)                  1.3786         estimate D2E/DX2                !
 ! R9    R(4,28)                 1.08           estimate D2E/DX2                !
 ! R10   R(5,6)                  1.3875         estimate D2E/DX2                !
 ! R11   R(5,29)                 1.08           estimate D2E/DX2                !
 ! R12   R(6,7)                  1.3831         estimate D2E/DX2                !
 ! R13   R(6,10)                 1.4066         estimate D2E/DX2                !
 ! R14   R(7,8)                  1.3686         estimate D2E/DX2                !
 ! R15   R(7,30)                 0.97           estimate D2E/DX2                !
 ! R16   R(8,9)                  1.3113         estimate D2E/DX2                !
 ! R17   R(8,12)                 1.3699         estimate D2E/DX2                !
 ! R18   R(9,10)                 1.3547         estimate D2E/DX2                !
 ! R19   R(10,11)                1.3988         estimate D2E/DX2                !
 ! R20   R(11,31)                1.08           estimate D2E/DX2                !
 ! R21   R(12,13)                1.3375         estimate D2E/DX2                !
 ! R22   R(12,24)                1.3259         estimate D2E/DX2                !
 ! R23   R(13,14)                1.479          estimate D2E/DX2                !
 ! R24   R(13,17)                1.3895         estimate D2E/DX2                !
 ! R25   R(14,15)                1.3471         estimate D2E/DX2                !
 ! R26   R(14,16)                1.2145         estimate D2E/DX2                !
 ! R27   R(15,32)                0.967          estimate D2E/DX2                !
 ! R28   R(17,18)                1.507          estimate D2E/DX2                !
 ! R29   R(17,19)                1.3937         estimate D2E/DX2                !
 ! R30   R(18,33)                1.09           estimate D2E/DX2                !
 ! R31   R(18,34)                1.09           estimate D2E/DX2                !
 ! R32   R(18,35)                1.0899         estimate D2E/DX2                !
 ! R33   R(19,20)                1.3569         estimate D2E/DX2                !
 ! R34   R(19,22)                1.3941         estimate D2E/DX2                !
 ! R35   R(20,21)                1.429          estimate D2E/DX2                !
 ! R36   R(21,36)                1.09           estimate D2E/DX2                !
 ! R37   R(21,37)                1.09           estimate D2E/DX2                !
 ! R38   R(21,38)                1.09           estimate D2E/DX2                !
 ! R39   R(22,23)                1.5071         estimate D2E/DX2                !
 ! R40   R(22,24)                1.3795         estimate D2E/DX2                !
 ! R41   R(23,39)                1.09           estimate D2E/DX2                !
 ! R42   R(23,40)                1.0899         estimate D2E/DX2                !
 ! R43   R(23,41)                1.09           estimate D2E/DX2                !
 ! R44   R(24,42)                1.08           estimate D2E/DX2                !
 ! A1    A(2,1,25)             109.468          estimate D2E/DX2                !
 ! A2    A(2,1,26)             109.4759         estimate D2E/DX2                !
 ! A3    A(2,1,27)             109.4734         estimate D2E/DX2                !
 ! A4    A(25,1,26)            109.4663         estimate D2E/DX2                !
 ! A5    A(25,1,27)            109.4731         estimate D2E/DX2                !
 ! A6    A(26,1,27)            109.4705         estimate D2E/DX2                !
 ! A7    A(1,2,3)              116.9967         estimate D2E/DX2                !
 ! A8    A(2,3,4)              119.7915         estimate D2E/DX2                !
 ! A9    A(2,3,11)             119.7902         estimate D2E/DX2                !
 ! A10   A(4,3,11)             120.4178         estimate D2E/DX2                !
 ! A11   A(3,4,5)              120.4284         estimate D2E/DX2                !
 ! A12   A(3,4,28)             119.7817         estimate D2E/DX2                !
 ! A13   A(5,4,28)             119.7898         estimate D2E/DX2                !
 ! A14   A(4,5,6)              119.9251         estimate D2E/DX2                !
 ! A15   A(4,5,29)             120.0353         estimate D2E/DX2                !
 ! A16   A(6,5,29)             120.0396         estimate D2E/DX2                !
 ! A17   A(5,6,7)              133.8184         estimate D2E/DX2                !
 ! A18   A(5,6,10)             120.014          estimate D2E/DX2                !
 ! A19   A(7,6,10)             106.1676         estimate D2E/DX2                !
 ! A20   A(6,7,8)              107.1831         estimate D2E/DX2                !
 ! A21   A(6,7,30)             126.4094         estimate D2E/DX2                !
 ! A22   A(8,7,30)             126.4075         estimate D2E/DX2                !
 ! A23   A(7,8,9)              109.7875         estimate D2E/DX2                !
 ! A24   A(7,8,12)             125.1061         estimate D2E/DX2                !
 ! A25   A(9,8,12)             125.1064         estimate D2E/DX2                !
 ! A26   A(8,9,10)             109.6614         estimate D2E/DX2                !
 ! A27   A(6,10,9)             107.2004         estimate D2E/DX2                !
 ! A28   A(6,10,11)            119.4871         estimate D2E/DX2                !
 ! A29   A(9,10,11)            133.3121         estimate D2E/DX2                !
 ! A30   A(3,11,10)            119.7258         estimate D2E/DX2                !
 ! A31   A(3,11,31)            120.1344         estimate D2E/DX2                !
 ! A32   A(10,11,31)           120.1397         estimate D2E/DX2                !
 ! A33   A(8,12,13)            119.2209         estimate D2E/DX2                !
 ! A34   A(8,12,24)            119.2171         estimate D2E/DX2                !
 ! A35   A(13,12,24)           121.5614         estimate D2E/DX2                !
 ! A36   A(12,13,14)           119.7463         estimate D2E/DX2                !
 ! A37   A(12,13,17)           120.51           estimate D2E/DX2                !
 ! A38   A(14,13,17)           119.7437         estimate D2E/DX2                !
 ! A39   A(13,14,15)           120.0002         estimate D2E/DX2                !
 ! A40   A(13,14,16)           119.9991         estimate D2E/DX2                !
 ! A41   A(15,14,16)           120.0007         estimate D2E/DX2                !
 ! A42   A(14,15,32)           117.0029         estimate D2E/DX2                !
 ! A43   A(13,17,18)           120.4743         estimate D2E/DX2                !
 ! A44   A(13,17,19)           119.0557         estimate D2E/DX2                !
 ! A45   A(18,17,19)           120.4701         estimate D2E/DX2                !
 ! A46   A(17,18,33)           109.4716         estimate D2E/DX2                !
 ! A47   A(17,18,34)           109.469          estimate D2E/DX2                !
 ! A48   A(17,18,35)           109.4708         estimate D2E/DX2                !
 ! A49   A(33,18,34)           109.4675         estimate D2E/DX2                !
 ! A50   A(33,18,35)           109.4762         estimate D2E/DX2                !
 ! A51   A(34,18,35)           109.4722         estimate D2E/DX2                !
 ! A52   A(17,19,20)           120.7232         estimate D2E/DX2                !
 ! A53   A(17,19,22)           118.5552         estimate D2E/DX2                !
 ! A54   A(20,19,22)           120.7215         estimate D2E/DX2                !
 ! A55   A(19,20,21)           116.9956         estimate D2E/DX2                !
 ! A56   A(20,21,36)           109.4698         estimate D2E/DX2                !
 ! A57   A(20,21,37)           109.4696         estimate D2E/DX2                !
 ! A58   A(20,21,38)           109.4749         estimate D2E/DX2                !
 ! A59   A(36,21,37)           109.4693         estimate D2E/DX2                !
 ! A60   A(36,21,38)           109.4713         estimate D2E/DX2                !
 ! A61   A(37,21,38)           109.4724         estimate D2E/DX2                !
 ! A62   A(19,22,23)           120.2962         estimate D2E/DX2                !
 ! A63   A(19,22,24)           119.4078         estimate D2E/DX2                !
 ! A64   A(23,22,24)           120.2955         estimate D2E/DX2                !
 ! A65   A(22,23,39)           109.4651         estimate D2E/DX2                !
 ! A66   A(22,23,40)           109.4701         estimate D2E/DX2                !
 ! A67   A(22,23,41)           109.4712         estimate D2E/DX2                !
 ! A68   A(39,23,40)           109.4753         estimate D2E/DX2                !
 ! A69   A(39,23,41)           109.4703         estimate D2E/DX2                !
 ! A70   A(40,23,41)           109.4753         estimate D2E/DX2                !
 ! A71   A(12,24,22)           120.9079         estimate D2E/DX2                !
 ! A72   A(12,24,42)           119.5466         estimate D2E/DX2                !
 ! A73   A(22,24,42)           119.5437         estimate D2E/DX2                !
 ! D1    D(25,1,2,3)          -179.9944         estimate D2E/DX2                !
 ! D2    D(26,1,2,3)           -59.9995         estimate D2E/DX2                !
 ! D3    D(27,1,2,3)            60.0039         estimate D2E/DX2                !
 ! D4    D(1,2,3,4)             -0.0013         estimate D2E/DX2                !
 ! D5    D(1,2,3,11)           179.7246         estimate D2E/DX2                !
 ! D6    D(2,3,4,5)           -179.9967         estimate D2E/DX2                !
 ! D7    D(2,3,4,28)            -0.0223         estimate D2E/DX2                !
 ! D8    D(11,3,4,5)             0.2792         estimate D2E/DX2                !
 ! D9    D(11,3,4,28)         -179.7464         estimate D2E/DX2                !
 ! D10   D(2,3,11,10)          179.7727         estimate D2E/DX2                !
 ! D11   D(2,3,11,31)           -0.0777         estimate D2E/DX2                !
 ! D12   D(4,3,11,10)           -0.5032         estimate D2E/DX2                !
 ! D13   D(4,3,11,31)          179.6464         estimate D2E/DX2                !
 ! D14   D(3,4,5,6)             -0.0272         estimate D2E/DX2                !
 ! D15   D(3,4,5,29)           179.9581         estimate D2E/DX2                !
 ! D16   D(28,4,5,6)           179.9984         estimate D2E/DX2                !
 ! D17   D(28,4,5,29)           -0.0163         estimate D2E/DX2                !
 ! D18   D(4,5,6,7)            179.9996         estimate D2E/DX2                !
 ! D19   D(4,5,6,10)             0.0049         estimate D2E/DX2                !
 ! D20   D(29,5,6,7)             0.0143         estimate D2E/DX2                !
 ! D21   D(29,5,6,10)         -179.9804         estimate D2E/DX2                !
 ! D22   D(5,6,7,8)           -179.9956         estimate D2E/DX2                !
 ! D23   D(5,6,7,30)            -0.0166         estimate D2E/DX2                !
 ! D24   D(10,6,7,8)            -0.0004         estimate D2E/DX2                !
 ! D25   D(10,6,7,30)          179.9787         estimate D2E/DX2                !
 ! D26   D(5,6,10,9)           179.9968         estimate D2E/DX2                !
 ! D27   D(5,6,10,11)           -0.229          estimate D2E/DX2                !
 ! D28   D(7,6,10,9)             0.0008         estimate D2E/DX2                !
 ! D29   D(7,6,10,11)          179.775          estimate D2E/DX2                !
 ! D30   D(6,7,8,9)             -0.0002         estimate D2E/DX2                !
 ! D31   D(6,7,8,12)           179.9779         estimate D2E/DX2                !
 ! D32   D(30,7,8,9)          -179.9792         estimate D2E/DX2                !
 ! D33   D(30,7,8,12)           -0.0011         estimate D2E/DX2                !
 ! D34   D(7,8,9,10)             0.0008         estimate D2E/DX2                !
 ! D35   D(12,8,9,10)         -179.9774         estimate D2E/DX2                !
 ! D36   D(7,8,12,13)          174.0629         estimate D2E/DX2                !
 ! D37   D(7,8,12,24)           -6.2049         estimate D2E/DX2                !
 ! D38   D(9,8,12,13)           -5.9623         estimate D2E/DX2                !
 ! D39   D(9,8,12,24)          173.77           estimate D2E/DX2                !
 ! D40   D(8,9,10,6)            -0.001          estimate D2E/DX2                !
 ! D41   D(8,9,10,11)         -179.7308         estimate D2E/DX2                !
 ! D42   D(6,10,11,3)            0.4765         estimate D2E/DX2                !
 ! D43   D(6,10,11,31)        -179.6731         estimate D2E/DX2                !
 ! D44   D(9,10,11,3)         -179.8199         estimate D2E/DX2                !
 ! D45   D(9,10,11,31)           0.0305         estimate D2E/DX2                !
 ! D46   D(8,12,13,14)           0.0051         estimate D2E/DX2                !
 ! D47   D(8,12,13,17)         179.9797         estimate D2E/DX2                !
 ! D48   D(24,12,13,14)       -179.7206         estimate D2E/DX2                !
 ! D49   D(24,12,13,17)          0.254          estimate D2E/DX2                !
 ! D50   D(8,12,24,22)         179.7644         estimate D2E/DX2                !
 ! D51   D(8,12,24,42)           0.2451         estimate D2E/DX2                !
 ! D52   D(13,12,24,22)         -0.5098         estimate D2E/DX2                !
 ! D53   D(13,12,24,42)        179.9708         estimate D2E/DX2                !
 ! D54   D(12,13,14,15)        -86.2584         estimate D2E/DX2                !
 ! D55   D(12,13,14,16)         93.7358         estimate D2E/DX2                !
 ! D56   D(17,13,14,15)         93.7667         estimate D2E/DX2                !
 ! D57   D(17,13,14,16)        -86.239          estimate D2E/DX2                !
 ! D58   D(12,13,17,18)       -179.9738         estimate D2E/DX2                !
 ! D59   D(12,13,17,19)          0.0            estimate D2E/DX2                !
 ! D60   D(14,13,17,18)          0.0008         estimate D2E/DX2                !
 ! D61   D(14,13,17,19)        179.9746         estimate D2E/DX2                !
 ! D62   D(13,14,15,32)        179.9949         estimate D2E/DX2                !
 ! D63   D(16,14,15,32)          0.0007         estimate D2E/DX2                !
 ! D64   D(13,17,18,33)         93.0698         estimate D2E/DX2                !
 ! D65   D(13,17,18,34)       -146.9359         estimate D2E/DX2                !
 ! D66   D(13,17,18,35)        -26.9362         estimate D2E/DX2                !
 ! D67   D(19,17,18,33)        -86.9036         estimate D2E/DX2                !
 ! D68   D(19,17,18,34)         33.0907         estimate D2E/DX2                !
 ! D69   D(19,17,18,35)        153.0903         estimate D2E/DX2                !
 ! D70   D(13,17,19,20)       -179.9809         estimate D2E/DX2                !
 ! D71   D(13,17,19,22)          0.0047         estimate D2E/DX2                !
 ! D72   D(18,17,19,20)         -0.0071         estimate D2E/DX2                !
 ! D73   D(18,17,19,22)        179.9785         estimate D2E/DX2                !
 ! D74   D(17,19,20,21)         90.0057         estimate D2E/DX2                !
 ! D75   D(22,19,20,21)        -89.9796         estimate D2E/DX2                !
 ! D76   D(17,19,22,23)        179.9926         estimate D2E/DX2                !
 ! D77   D(17,19,22,24)         -0.2481         estimate D2E/DX2                !
 ! D78   D(20,19,22,23)         -0.0218         estimate D2E/DX2                !
 ! D79   D(20,19,22,24)        179.7374         estimate D2E/DX2                !
 ! D80   D(19,20,21,36)       -179.9978         estimate D2E/DX2                !
 ! D81   D(19,20,21,37)        -60.002          estimate D2E/DX2                !
 ! D82   D(19,20,21,38)         60.0007         estimate D2E/DX2                !
 ! D83   D(19,22,23,39)         89.9984         estimate D2E/DX2                !
 ! D84   D(19,22,23,40)       -150.001          estimate D2E/DX2                !
 ! D85   D(19,22,23,41)        -29.9967         estimate D2E/DX2                !
 ! D86   D(24,22,23,39)        -89.7587         estimate D2E/DX2                !
 ! D87   D(24,22,23,40)         30.242          estimate D2E/DX2                !
 ! D88   D(24,22,23,41)        150.2462         estimate D2E/DX2                !
 ! D89   D(19,22,24,12)          0.5036         estimate D2E/DX2                !
 ! D90   D(19,22,24,42)       -179.977          estimate D2E/DX2                !
 ! D91   D(23,22,24,12)       -179.7372         estimate D2E/DX2                !
 ! D92   D(23,22,24,42)         -0.2178         estimate D2E/DX2                !
 --------------------------------------------------------------------------------
 Trust Radius=3.00D-01 FncErr=1.00D-07 GrdErr=1.00D-06 EigMax=2.50D+02 EigMin=1.00D-04
 Number of steps in this run=    219 maximum allowed number of steps=    252.
 GradGradGradGradGradGradGradGradGradGradGradGradGradGradGradGradGradGrad

 Leave Link  103 at Mon Jun  9 11:54:04 2025, MaxMem=  5368709120 cpu:               0.3 elap:               0.0
 (Enter /opt/software/custom/apps/gaussian/x86_64-legacy/g16/l202.exe)
                          Input orientation:                          
 ---------------------------------------------------------------------
 Center     Atomic      Atomic             Coordinates (Angstroms)
 Number     Number       Type             X           Y           Z
 ---------------------------------------------------------------------
      1          6           0        7.104700    0.012000    0.175000
      2          8           0        5.915400   -0.778500    0.225900
      3          6           0        4.730800   -0.118500    0.125700
      4          6           0        4.720500    1.266100   -0.018900
      5          6           0        3.527100    1.948500   -0.121600
      6          6           0        2.326800    1.253700   -0.081500
      7          7           0        0.998500    1.631800   -0.156200
      8          6           0        0.247500    0.491900   -0.057800
      9          7           0        1.034900   -0.548700    0.071300
     10          6           0        2.328200   -0.145400    0.063900
     11          6           0        3.546200   -0.826200    0.162300
     12          7           0       -1.121200    0.445100   -0.089000
     13          6           0       -1.733700   -0.743800   -0.103300
     14          6           0       -0.928600   -1.984300   -0.085200
     15          8           0       -0.471500   -2.507500   -1.239300
     16          8           0       -0.679500   -2.531200    0.970200
     17          6           0       -3.120600   -0.822500   -0.134500
     18          6           0       -3.809900   -2.162500   -0.150000
     19          6           0       -3.865200    0.355500   -0.150700
     20          8           0       -5.221300    0.318100   -0.180800
     21          6           0       -5.897800    0.300000    1.077800
     22          6           0       -3.186500    1.573100   -0.135000
     23          6           0       -3.952600    2.870800   -0.151800
     24          6           0       -1.807500    1.579500   -0.098900
     25          1           0        7.976100   -0.636500    0.265600
     26          1           0        7.146100    0.545500   -0.774600
     27          1           0        7.099200    0.729900    0.995100
     28          1           0        5.653500    1.809100   -0.050400
     29          1           0        3.526500    3.022700   -0.232900
     30          1           0        0.662100    2.535800   -0.258800
     31          1           0        3.559700   -1.900800    0.268900
     32          1           0        0.050300   -3.319200   -1.177100
     33          1           0       -4.048100   -2.460400    0.871100
     34          1           0       -4.729100   -2.091500   -0.731500
     35          1           0       -3.151200   -2.904700   -0.600800
     36          1           0       -6.974600    0.270200    0.911100
     37          1           0       -5.592900   -0.581700    1.641500
     38          1           0       -5.642000    1.197600    1.640800
     39          1           0       -4.160400    3.183200    0.871600
     40          1           0       -3.359600    3.636300   -0.652100
     41          1           0       -4.891900    2.731300   -0.686900
     42          1           0       -1.279500    2.521500   -0.086300
 ---------------------------------------------------------------------
                    Distance matrix (angstroms):
                    1          2          3          4          5
     1  C    0.000000
     2  O    1.428956   0.000000
     3  C    2.377995   1.359749   0.000000
     4  C    2.700884   2.380778   1.392168   0.000000
     5  C    4.078876   3.641602   2.404691   1.378557   0.000000
     6  C    4.943272   4.135503   2.775803   2.394551   1.387471
     7  N    6.326067   5.489212   4.131958   3.742442   2.548591
     8  C    6.877913   5.815453   4.528382   4.539673   3.589085
     9  N    6.096524   4.888352   3.721251   4.109171   3.533310
    10  C    4.780384   3.646240   2.403545   2.778900   2.419956
    11  C    3.655908   2.370533   1.380383   2.406145   2.789252
    12  N    8.241523   7.149133   5.882996   5.899527   4.885485
    13  C    8.875021   7.656259   6.498708   6.760438   5.909723
    14  C    8.281716   6.956369   5.962759   6.517808   5.943190
    15  O    8.108448   6.777075   5.885106   6.533475   6.090484
    16  O    8.227635   6.864302   5.983782   6.675163   6.241412
    17  C   10.263963   9.043291   7.887192   8.115323   7.202119
    18  C   11.133848   9.830474   8.786211   9.194575   8.410273
    19  C   10.980108   9.853320   8.613495   8.634860   7.562050
    20  O   12.334933  11.197947   9.966386   9.988208   8.899225
    21  C   13.036986  11.892880  10.679362  10.718414   9.642865
    22  C   10.413546   9.407702   8.100192   7.913809   6.724101
    23  C   11.425560  10.527938   9.187729   8.821303   7.536409
    24  C    9.053142   8.081389   6.758921   6.536008   5.347395
    25  H    1.089999   2.065968   3.289357   3.781502   5.160015
    26  H    1.089989   2.066059   2.661787   2.640811   3.935985
    27  H    1.089943   2.065992   2.661758   2.640818   3.935976
    28  H    2.320852   2.615455   2.144301   1.079968   2.132154
    29  H    4.694061   4.512922   3.383204   2.134731   1.079951
    30  H    6.932881   6.230303   4.873137   4.259143   2.927793
    31  H    4.029224   2.609737   2.137422   3.385194   3.869194
    32  H    7.917678   6.543926   5.817976   6.646591   6.399288
    33  H   11.444748  10.125038   9.116425   9.569078   8.820856
    34  H   12.053434  10.767821   9.701403  10.053667   9.211863
    35  H   10.690767   9.349192   8.391462   8.927365   8.269394
    36  H   14.100894  12.950729  11.738157  11.774213  10.684983
    37  H   12.795786  11.596707  10.444663  10.608370   9.627296
    38  H   12.885363  11.810182  10.565161  10.494794   9.367086
    39  H   11.723662  10.845909   9.513728   9.129000   7.849114
    40  H   11.105009  10.309557   8.953104   8.444336   7.110326
    41  H   12.331094  11.399545  10.068666   9.746346   8.474190
    42  H    8.755608   7.921746   6.567972   6.130299   4.840762
                    6          7          8          9         10
     6  C    0.000000
     7  N    1.383084   0.000000
     8  C    2.214586   1.368596   0.000000
     9  N    2.222836   2.192638   1.311302   0.000000
    10  C    1.406636   2.230468   2.179512   1.354744   0.000000
    11  C    2.423295   3.554431   3.559108   2.528224   1.398819
    12  N    3.541553   2.430206   1.369855   2.379517   3.502917
    13  C    4.525278   3.620938   2.335418   2.780952   4.109145
    14  C    4.591545   4.098162   2.741446   2.437370   3.743064
    15  O    4.828831   4.524136   3.302923   2.797108   3.887951
    16  O    4.946653   4.627638   3.324943   2.770829   3.944576
    17  C    5.829887   4.794898   3.616300   4.169592   5.494292
    18  C    7.023831   6.125150   4.849416   5.111302   6.464574
    19  C    6.257189   5.028374   4.116010   4.987769   6.217327
    20  O    7.606512   6.357069   5.472943   6.320992   7.567672
    21  C    8.360476   7.131297   6.252290   7.056604   8.300208
    22  C    5.522803   4.185465   3.601015   4.729145   5.779682
    23  C    6.484660   5.103776   4.827923   6.051273   6.970828
    24  C    4.147154   2.807072   2.325422   3.554918   4.483949
    25  H    5.967238   7.349150   7.817233   6.944474   5.672798
    26  H    4.920121   6.273392   6.935947   6.265747   4.938885
    27  H    4.920288   6.273552   6.936212   6.266096   4.939203
    28  H    3.372887   4.659577   5.564163   5.187051   3.858854
    29  H    2.142793   2.886394   4.145775   4.365261   3.400128
    30  H    2.108659   0.970004   2.095190   3.124434   3.173146
    31  H    3.404951   4.384030   4.099075   2.870860   2.154077
    32  H    5.224386   5.143318   3.976959   3.194309   4.099014
    33  H    7.439176   6.577965   5.294441   5.489186   6.831398
    34  H    7.835725   6.855606   5.647510   6.020666   7.363793
    35  H    6.897133   6.164212   4.835587   4.850349   6.170850
    36  H    9.405773   8.158640   7.290175   8.094934   9.350538
    37  H    8.310179   7.181773   6.176610   6.811340   8.088449
    38  H    8.152990   6.893038   6.170046   7.077704   8.234947
    39  H    6.834847   5.484292   5.247520   6.446604   7.337158
    40  H    6.191729   4.822548   4.821993   6.111396   6.867676
    41  H    7.393202   6.015593   5.641286   6.816174   7.808261
    42  H    3.822661   2.446576   2.540043   3.848040   4.488921
                   11         12         13         14         15
    11  C    0.000000
    12  N    4.843963   0.000000
    13  C    5.287218   1.337477   0.000000
    14  C    4.628854   2.437026   1.478971   0.000000
    15  O    4.575278   3.234679   2.448322   1.347080   0.000000
    16  O    4.627771   3.189885   2.336352   1.214504   2.219395
    17  C    6.673404   2.367801   1.389481   2.481345   3.328294
    18  C    7.483010   3.745985   2.515054   2.887533   3.528529
    19  C    7.511540   2.746156   2.398750   3.755339   4.571544
    20  O    8.848514   4.103093   3.646504   4.872110   5.627170
    21  C    9.554873   4.919185   4.452443   5.591381   6.534198
    22  C    7.153620   2.353713   2.734896   4.213750   5.024142
    23  C    8.366509   3.728913   4.241604   5.720228   6.498217
    24  C    5.875178   1.325884   2.324476   3.670603   4.448480
    25  H    4.435163   9.168231   9.717398   9.012952   8.782216
    26  H    3.964672   8.296287   8.997988   8.489755   8.219768
    27  H    3.967217   8.296467   9.022106   8.542804   8.531635
    28  H    3.380941   6.910756   7.816062   7.597048   7.586972
    29  H    3.869186   5.316563   6.470937   6.703714   6.897823
    30  H    4.449540   2.753183   4.064457   4.794973   5.261303
    31  H    1.079959   5.248063   5.431138   4.503021   4.346645
    32  H    4.497817   4.089783   3.311856   1.983040   0.966954
    33  H    7.800410   4.234438   3.041812   3.297342   4.153080
    34  H    8.419053   4.456915   3.344152   3.856552   4.307908
    35  H    7.053910   3.950190   2.631787   2.460270   2.783207
    36  H   10.604246   5.940798   5.433621   6.529127   7.391221
    37  H    9.261261   4.903575   4.238399   5.167637   6.183563
    38  H    9.523904   4.898581   4.699545   5.943038   6.982608
    39  H    8.716082   4.201985   4.718117   6.169526   7.102672
    40  H    8.262398   3.938435   4.704254   6.149982   6.814118
    41  H    9.196656   4.449986   4.731927   6.189238   6.876780
    42  H    5.878459   2.082427   3.296782   4.519443   5.222367
                   16         17         18         19         20
    16  O    0.000000
    17  C    3.177890   0.000000
    18  C    3.345174   1.506975   0.000000
    19  C    4.442762   1.393691   2.518607   0.000000
    20  O    5.483727   2.390827   2.854186   1.356950   0.000000
    21  C    5.937839   3.231488   3.454088   2.375659   1.429004
    22  C    4.934754   2.396506   3.787289   1.394070   2.391136
    23  C    6.415113   3.785893   5.035323   2.516818   2.850740
    24  C    4.394680   2.737719   4.244382   2.394784   3.640312
    25  H    8.888518  11.105468  11.891644  11.890070  13.239407
    26  H    8.587807  10.377200  11.302979  11.030597  12.383735
    27  H    8.434665  10.398570  11.343972  11.030462  12.383337
    28  H    7.745109   9.160634  10.263502   9.629572  10.977311
    29  H    7.069914   7.679791   8.984205   7.858622   9.156505
    30  H    5.383755   5.059886   6.487268   5.026116   6.287978
    31  H    4.342815   6.778781   7.386134   7.771492   9.068170
    32  H    2.400927   4.168349   4.158610   5.466997   6.481692
    33  H    3.370801   2.134058   1.090013   3.001137   3.194206
    34  H    4.414564   2.134020   1.090005   2.659222   2.520259
    35  H    2.952430   2.133994   1.089939   3.367683   3.853330
    36  H    6.890546   4.140119   4.130289   3.286801   2.066059
    37  H    5.328479   3.053593   2.981189   2.659938   2.066036
    38  H    6.243401   3.686455   4.225379   2.660004   2.066092
    39  H    6.691842   4.258997   5.453717   3.021279   3.231386
    40  H    6.917575   4.495100   5.837890   3.357184   3.833863
    41  H    6.941484   4.009008   5.040661   2.643113   2.487604
    42  H    5.196727   3.817631   5.324175   3.373655   4.516823
                   21         22         23         24         25
    21  C    0.000000
    22  C    3.231534   0.000000
    23  C    3.450323   1.507056   0.000000
    24  C    4.444356   1.379487   2.504338   0.000000
    25  H   13.929171  11.386240  12.440629  10.038045   0.000000
    26  H   13.177063  10.403253  11.356762   9.038400   1.779899
    27  H   13.004371  10.381895  11.315525   9.013765   1.779936
    28  H   11.703963   8.843554   9.665125   7.464690   3.387519
    29  H    9.896891   6.868427   7.481082   5.527417   5.782490
    30  H    7.058158   3.969111   4.628081   2.653112   7.989561
    31  H    9.743826   7.598837   8.909535   6.407386   4.593806
    32  H    7.318680   5.957973   7.442483   5.348944   8.490970
    33  H    3.329253   4.245434   5.429285   4.720379  12.176807
    34  H    3.218493   4.020537   5.056029   4.734149  12.827055
    35  H    4.542203   4.502100   5.848097   4.708023  11.389126
    36  H    1.090034   4.140239   4.126180   5.425246  14.992071
    37  H    1.090008   3.686445   4.222116   4.693509  13.638690
    38  H    1.089995   3.053514   2.977765   4.227978  13.809698
    39  H    3.372524   2.134045   1.090010   3.008299  12.737817
    40  H    4.534965   2.134046   1.089926   2.635426  12.148954
    41  H    3.168157   2.134106   1.089989   3.344534  13.335470
    42  H    5.255367   2.130372   2.696621   1.079957   9.785854
                   26         27         28         29         30
    26  H    0.000000
    27  H    1.779899   0.000000
    28  H    2.085427   2.085136   0.000000
    29  H    4.419441   4.419174   2.455659   0.000000
    30  H    6.802176   6.802191   5.048326   2.905603   0.000000
    31  H    4.464923   4.469453   4.271921   4.949117   5.325220
    32  H    8.090012   8.414313   7.678852   7.293502   5.958070
    33  H   11.707001  11.595503  10.639494   9.415825   6.958784
    34  H   12.164539  12.282106  11.112019   9.724123   7.120420
    35  H   10.861329  10.992175  10.002279   8.936504   6.652613
    36  H   14.223626  14.081556  12.757806  10.915956   8.051136
    37  H   13.015001  12.776053  11.621530   9.983413   7.242580
    38  H   13.030537  12.766121  11.437762   9.534314   6.718700
    39  H   11.726226  11.524432   9.952430   7.767504   4.995342
    40  H   10.951611  10.979386   9.216110   6.926082   4.188061
    41  H   12.235148  12.272783  10.604765   8.435668   5.573904
    42  H    8.681536   8.636080   6.969598   4.834287   1.949300
                   31         32         33         34         35
    31  H    0.000000
    32  H    4.051995   0.000000
    33  H    7.652086   4.661496   0.000000
    34  H    8.351130   4.954641   1.779937   0.000000
    35  H    6.841080   3.279258   1.779978   1.779928   0.000000
    36  H   10.774838   8.160490   4.002771   3.649388   5.194634
    37  H    9.348483   6.876345   2.551360   2.942240   4.047979
    38  H    9.805788   7.793864   4.063732   4.156846   5.296954
    39  H    9.263382   8.013013   5.644717   5.542185   6.344208
    40  H    8.909794   7.764150   6.321702   5.889782   6.544520
    41  H    9.685011   7.827783   5.485719   4.825753   5.899317
    42  H    6.565117   6.088677   5.779367   5.796188   5.762952
                   36         37         38         39         40
    36  H    0.000000
    37  H    1.779975   0.000000
    38  H    1.779988   1.779977   0.000000
    39  H    4.050537   4.101131   2.594112   0.000000
    40  H    5.180970   5.295258   4.051419   1.779956   0.000000
    41  H    3.598369   4.109601   2.886706   1.779952   1.779938
    42  H    6.204621   5.587536   4.875140   3.107250   2.426875
                   41         42
    41  H    0.000000
    42  H    3.667993   0.000000
 Stoichiometry    C17H18N3O4(2)
 Framework group  C1[X(C17H18N3O4)]
 Deg. of freedom   120
 Full point group                 C1      NOp   1
 Largest Abelian subgroup         C1      NOp   1
 Largest concise Abelian subgroup C1      NOp   1
                         Standard orientation:                         
 ---------------------------------------------------------------------
 Center     Atomic      Atomic             Coordinates (Angstroms)
 Number     Number       Type             X           Y           Z
 ---------------------------------------------------------------------
      1          6           0       -7.127426    0.013257    0.195168
      2          8           0       -5.937680    0.803180    0.244572
      3          6           0       -4.753682    0.143174    0.137534
      4          6           0       -4.744384   -1.240885   -0.012219
      5          6           0       -3.551602   -1.923285   -0.121872
      6          6           0       -2.350928   -1.229025   -0.083663
      7          7           0       -1.023042   -1.607273   -0.164693
      8          6           0       -0.271299   -0.467987   -0.064871
      9          7           0       -1.057865    0.572382    0.070998
     10          6           0       -2.351319    0.169529    0.066911
     11          6           0       -3.568717    0.850352    0.172350
     12          7           0        1.097291   -0.421512   -0.100981
     13          6           0        1.710133    0.767235   -0.113161
     14          6           0        0.905522    2.007919   -0.087487
     15          8           0        0.444316    2.535529   -1.237939
     16          8           0        0.660526    2.550993    0.970845
     17          6           0        3.096934    0.845603   -0.149221
     18          6           0        3.786621    2.185430   -0.162329
     19          6           0        3.841073   -0.332568   -0.172540
     20          8           0        5.197064   -0.295494   -0.207538
     21          6           0        5.878239   -0.282265    1.048599
     22          6           0        3.162027   -1.549999   -0.158820
     23          6           0        3.927624   -2.847875   -0.183261
     24          6           0        1.783169   -1.556089   -0.117622
     25          1           0       -7.998266    0.661698    0.291400
     26          1           0       -7.172531   -0.516716   -0.756237
     27          1           0       -7.119122   -0.707672    1.012583
     28          1           0       -5.677676   -1.783465   -0.042260
     29          1           0       -3.551776   -2.997067   -0.237143
     30          1           0       -0.687329   -2.510996   -0.271882
     31          1           0       -3.581460    1.924555    0.282970
     32          1           0       -0.076977    3.347162   -1.170802
     33          1           0        4.028711    2.479476    0.858974
     34          1           0        4.703632    2.116284   -0.747497
     35          1           0        3.126501    2.929503   -0.607933
     36          1           0        6.954422   -0.252195    0.878012
     37          1           0        5.575730    0.597443    1.616682
     38          1           0        5.624230   -1.181858    1.609224
     39          1           0        4.139118   -3.164123    0.838198
     40          1           0        3.332514   -3.611329   -0.684181
     41          1           0        4.864978   -2.706700   -0.721327
     42          1           0        1.254903   -2.497959   -0.106543
 ---------------------------------------------------------------------
 Rotational constants (GHZ):           0.6337099           0.1143320           0.0995714
 Leave Link  202 at Mon Jun  9 11:54:04 2025, MaxMem=  5368709120 cpu:               0.2 elap:               0.0
 (Enter /opt/software/custom/apps/gaussian/x86_64-legacy/g16/l301.exe)
 Standard basis: 6-31G(d) (6D, 7F)
 Ernie: Thresh=  0.10000D-02 Tol=  0.10000D-05 Strict=F.
 There are   396 symmetry adapted cartesian basis functions of A   symmetry.
 There are   396 symmetry adapted basis functions of A   symmetry.
   396 basis functions,   744 primitive gaussians,   396 cartesian basis functions
    87 alpha electrons       86 beta electrons
       nuclear repulsion energy      2050.8496602099 Hartrees.
 IExCor= 4336 DFT=T Ex+Corr=M062X ExCW=0 ScaHFX=  0.540000
 ScaDFX=  1.000000  1.000000  1.000000  1.000000 ScalE2=  1.000000  1.000000
 IRadAn=      5 IRanWt=     -1 IRanGd=            0 ICorTp=0 IEmpDi=  4
 NAtoms=   42 NActive=   42 NUniq=   42 SFac= 1.00D+00 NAtFMM=   60 NAOKFM=F Big=F
 Integral buffers will be    131072 words long.
 Raffenetti 2 integral format.
 Two-electron integral symmetry is turned on.
 Leave Link  301 at Mon Jun  9 11:54:05 2025, MaxMem=  5368709120 cpu:               1.1 elap:               0.1
 (Enter /opt/software/custom/apps/gaussian/x86_64-legacy/g16/l302.exe)
 NPDir=0 NMtPBC=     1 NCelOv=     1 NCel=       1 NClECP=     1 NCelD=      1
         NCelK=      1 NCelE2=     1 NClLst=     1 CellRange=     0.0.
 One-electron integrals computed using PRISM.
 One-electron integral symmetry used in STVInt
 NBasis=   396 RedAO= T EigKep=  3.16D-04  NBF=   396
 NBsUse=   396 1.00D-06 EigRej= -1.00D+00 NBFU=   396
 Precomputing XC quadrature grid using
 IXCGrd= 4 IRadAn=           5 IRanWt=          -1 IRanGd=           0 AccXCQ= 0.00D+00.
 Generated NRdTot=       0 NPtTot=           0 NUsed=           0 NTot=          32
 NSgBfM=   389   389   389   389   389 MxSgAt=    42 MxSgA2=    42.
 Leave Link  302 at Mon Jun  9 11:54:05 2025, MaxMem=  5368709120 cpu:               8.4 elap:               0.5
 (Enter /opt/software/custom/apps/gaussian/x86_64-legacy/g16/l303.exe)
 DipDrv:  MaxL=1.
 Leave Link  303 at Mon Jun  9 11:54:05 2025, MaxMem=  5368709120 cpu:               0.8 elap:               0.1
 (Enter /opt/software/custom/apps/gaussian/x86_64-legacy/g16/l401.exe)
 ExpMin= 1.61D-01 ExpMax= 5.48D+03 ExpMxC= 8.25D+02 IAcc=3 IRadAn=         5 AccDes= 0.00D+00
 Harris functional with IExCor= 1009 and IRadAn=       5 diagonalized for initial guess.
 HarFok:  IExCor= 1009 AccDes= 0.00D+00 IRadAn=         5 IDoV= 1 UseB2=F ITyADJ=14
 ICtDFT=  3500011 ScaDFX=  1.000000  1.000000  1.000000  1.000000
 FoFCou: FMM=F IPFlag=           0 FMFlag=      100000 FMFlg1=           0
         NFxFlg=           0 DoJE=T BraDBF=F KetDBF=T FulRan=T
         wScrn=  0.000000 ICntrl=       500 IOpCl=  0 I1Cent=   200000004 NGrid=           0
         NMat0=    1 NMatS0=      1 NMatT0=    0 NMatD0=    1 NMtDS0=    0 NMtDT0=    0
 Petite list used in FoFCou.
 Harris En= -1122.70003638199    
 JPrj=0 DoOrth=F DoCkMO=F.
 Initial guess <Sx>= 0.0000 <Sy>= 0.0000 <Sz>= 0.5000 <S**2>= 0.7500 S= 0.5000
 Leave Link  401 at Mon Jun  9 11:54:07 2025, MaxMem=  5368709120 cpu:              28.3 elap:               1.5
 (Enter /opt/software/custom/apps/gaussian/x86_64-legacy/g16/l502.exe)
 Integral symmetry usage will be decided dynamically.
 UHF open shell SCF:
 Using DIIS extrapolation, IDIIS=  1040.
 NGot=  5368709120 LenX=  5368383196 LenY=  5368225939
 Requested convergence on RMS density matrix=1.00D-08 within 128 cycles.
 Requested convergence on MAX density matrix=1.00D-06.
 Requested convergence on             energy=1.00D-06.
 No special actions if energy rises.
 Fock matrices will be formed incrementally for  20 cycles.
 Integral accuracy reduced to 1.0D-05 until final iterations.

 Cycle   1  Pass 0  IDiag  1:
 FoFJK:  IHMeth= 1 ICntrl=       0 DoSepK=F KAlg= 0 I1Cent=           0 FoldK=F
 IRaf= 690000000 NMat=       1 IRICut=       1 DoRegI=T DoRafI=F ISym2E= 0 IDoP0=0 IntGTp=1.
 FoFCou: FMM=F IPFlag=           0 FMFlag=      100000 FMFlg1=           0
         NFxFlg=           0 DoJE=F BraDBF=F KetDBF=F FulRan=T
         wScrn=  0.000000 ICntrl=         0 IOpCl=  1 I1Cent=           0 NGrid=           0
         NMat0=    1 NMatS0=      1 NMatT0=    0 NMatD0=    1 NMtDS0=    0 NMtDT0=    0
 Symmetry not used in FoFCou.
 E= -1122.67301790170    
 DIIS: error= 3.22D-02 at cycle   1 NSaved=   1.
 NSaved= 1 IEnMin= 1 EnMin= -1122.67301790170     IErMin= 1 ErrMin= 3.22D-02
 ErrMax= 3.22D-02  0.00D+00 EMaxC= 1.00D-01 BMatC= 2.66D+00 BMatP= 2.66D+00
 IDIUse=3 WtCom= 6.78D-01 WtEn= 3.22D-01
 Coeff-Com:  0.100D+01
 Coeff-En:   0.100D+01
 Coeff:      0.100D+01
 Gap=     0.152 Goal=   None    Shift=    0.000
 Gap=     0.169 Goal=   None    Shift=    0.000
 GapD=    0.152 DampG=1.000 DampE=0.500 DampFc=0.5000 IDamp=-1.
 Damping current iteration by 5.00D-01
 RMSDP=4.20D-03 MaxDP=1.59D-01              OVMax= 3.66D-01

 Cycle   2  Pass 0  IDiag  1:
 RMSU=  2.07D-03    CP:  9.81D-01
 E= -1122.93535853013     Delta-E=       -0.262340628431 Rises=F Damp=T
 DIIS: error= 1.16D-02 at cycle   2 NSaved=   2.
 NSaved= 2 IEnMin= 2 EnMin= -1122.93535853013     IErMin= 2 ErrMin= 1.16D-02
 ErrMax= 1.16D-02  0.00D+00 EMaxC= 1.00D-01 BMatC= 3.03D-01 BMatP= 2.66D+00
 IDIUse=3 WtCom= 8.84D-01 WtEn= 1.16D-01
 Coeff-Com: -0.712D-03 0.100D+01
 Coeff-En:   0.150D-01 0.985D+00
 Coeff:      0.112D-02 0.999D+00
 Gap=     0.173 Goal=   None    Shift=    0.000
 Gap=     0.259 Goal=   None    Shift=    0.000
 RMSDP=1.43D-03 MaxDP=7.26D-02 DE=-2.62D-01 OVMax= 2.06D-01

 Cycle   3  Pass 0  IDiag  1:
 RMSU=  1.40D-03    CP:  9.68D-01  9.32D-01
 E= -1123.19765497861     Delta-E=       -0.262296448477 Rises=F Damp=F
 DIIS: error= 8.42D-03 at cycle   3 NSaved=   3.
 NSaved= 3 IEnMin= 3 EnMin= -1123.19765497861     IErMin= 3 ErrMin= 8.42D-03
 ErrMax= 8.42D-03  0.00D+00 EMaxC= 1.00D-01 BMatC= 2.44D-01 BMatP= 3.03D-01
 IDIUse=3 WtCom= 9.16D-01 WtEn= 8.42D-02
 Coeff-Com: -0.909D-01 0.519D+00 0.572D+00
 Coeff-En:   0.000D+00 0.000D+00 0.100D+01
 Coeff:     -0.833D-01 0.475D+00 0.608D+00
 Gap=     0.166 Goal=   None    Shift=    0.000
 Gap=     0.226 Goal=   None    Shift=    0.000
 RMSDP=8.59D-04 MaxDP=4.57D-02 DE=-2.62D-01 OVMax= 1.01D-01

 Cycle   4  Pass 0  IDiag  1:
 RMSU=  4.96D-04    CP:  9.71D-01  1.12D+00  5.81D-01
 E= -1123.24714693437     Delta-E=       -0.049491955756 Rises=F Damp=F
 DIIS: error= 2.85D-03 at cycle   4 NSaved=   4.
 NSaved= 4 IEnMin= 4 EnMin= -1123.24714693437     IErMin= 4 ErrMin= 2.85D-03
 ErrMax= 2.85D-03  0.00D+00 EMaxC= 1.00D-01 BMatC= 3.35D-02 BMatP= 2.44D-01
 IDIUse=3 WtCom= 9.72D-01 WtEn= 2.85D-02
 Coeff-Com: -0.246D-01 0.780D-01 0.299D+00 0.648D+00
 Coeff-En:   0.000D+00 0.000D+00 0.946D-01 0.905D+00
 Coeff:     -0.239D-01 0.758D-01 0.293D+00 0.655D+00
 Gap=     0.164 Goal=   None    Shift=    0.000
 Gap=     0.225 Goal=   None    Shift=    0.000
 RMSDP=2.62D-04 MaxDP=1.63D-02 DE=-4.95D-02 OVMax= 3.02D-02

 Cycle   5  Pass 0  IDiag  1:
 RMSU=  1.43D-04    CP:  9.70D-01  1.08D+00  7.05D-01  7.86D-01
 E= -1123.25457747762     Delta-E=       -0.007430543252 Rises=F Damp=F
 DIIS: error= 7.58D-04 at cycle   5 NSaved=   5.
 NSaved= 5 IEnMin= 5 EnMin= -1123.25457747762     IErMin= 5 ErrMin= 7.58D-04
 ErrMax= 7.58D-04  0.00D+00 EMaxC= 1.00D-01 BMatC= 1.63D-03 BMatP= 3.35D-02
 IDIUse=3 WtCom= 9.92D-01 WtEn= 7.58D-03
 Coeff-Com: -0.585D-02 0.885D-02 0.107D+00 0.306D+00 0.584D+00
 Coeff-En:   0.000D+00 0.000D+00 0.000D+00 0.000D+00 0.100D+01
 Coeff:     -0.580D-02 0.878D-02 0.106D+00 0.303D+00 0.587D+00
 Gap=     0.167 Goal=   None    Shift=    0.000
 Gap=     0.228 Goal=   None    Shift=    0.000
 RMSDP=7.02D-05 MaxDP=4.19D-03 DE=-7.43D-03 OVMax= 8.81D-03

 Cycle   6  Pass 0  IDiag  1:
 RMSU=  6.24D-05    CP:  9.69D-01  1.08D+00  7.10D-01  8.33D-01  8.68D-01
 E= -1123.25504037287     Delta-E=       -0.000462895248 Rises=F Damp=F
 DIIS: error= 3.25D-04 at cycle   6 NSaved=   6.
 NSaved= 6 IEnMin= 6 EnMin= -1123.25504037287     IErMin= 6 ErrMin= 3.25D-04
 ErrMax= 3.25D-04  0.00D+00 EMaxC= 1.00D-01 BMatC= 1.54D-04 BMatP= 1.63D-03
 IDIUse=3 WtCom= 9.97D-01 WtEn= 3.25D-03
 Coeff-Com:  0.254D-02-0.893D-02-0.146D-01-0.225D-01 0.163D+00 0.881D+00
 Coeff-En:   0.000D+00 0.000D+00 0.000D+00 0.000D+00 0.000D+00 0.100D+01
 Coeff:      0.254D-02-0.890D-02-0.146D-01-0.224D-01 0.162D+00 0.881D+00
 Gap=     0.168 Goal=   None    Shift=    0.000
 Gap=     0.229 Goal=   None    Shift=    0.000
 RMSDP=4.23D-05 MaxDP=2.81D-03 DE=-4.63D-04 OVMax= 1.05D-02

 Cycle   7  Pass 0  IDiag  1:
 RMSU=  2.28D-05    CP:  9.69D-01  1.08D+00  7.17D-01  8.60D-01  1.08D+00
                    CP:  1.15D+00
 E= -1123.25515201451     Delta-E=       -0.000111641645 Rises=F Damp=F
 DIIS: error= 1.39D-04 at cycle   7 NSaved=   7.
 NSaved= 7 IEnMin= 7 EnMin= -1123.25515201451     IErMin= 7 ErrMin= 1.39D-04
 ErrMax= 1.39D-04  0.00D+00 EMaxC= 1.00D-01 BMatC= 4.61D-05 BMatP= 1.54D-04
 IDIUse=3 WtCom= 9.99D-01 WtEn= 1.39D-03
 Coeff-Com:  0.216D-02-0.511D-02-0.265D-01-0.739D-01-0.590D-01 0.337D+00
 Coeff-Com:  0.825D+00
 Coeff-En:   0.000D+00 0.000D+00 0.000D+00 0.000D+00 0.000D+00 0.000D+00
 Coeff-En:   0.100D+01
 Coeff:      0.216D-02-0.510D-02-0.265D-01-0.738D-01-0.589D-01 0.337D+00
 Coeff:      0.826D+00
 Gap=     0.170 Goal=   None    Shift=    0.000
 Gap=     0.229 Goal=   None    Shift=    0.000
 RMSDP=2.53D-05 MaxDP=1.52D-03 DE=-1.12D-04 OVMax= 5.46D-03

 Cycle   8  Pass 0  IDiag  1:
 RMSU=  1.31D-05    CP:  9.69D-01  1.08D+00  7.19D-01  8.78D-01  1.17D+00
                    CP:  1.37D+00  1.18D+00
 E= -1123.25518883965     Delta-E=       -0.000036825141 Rises=F Damp=F
 DIIS: error= 6.11D-05 at cycle   8 NSaved=   8.
 NSaved= 8 IEnMin= 8 EnMin= -1123.25518883965     IErMin= 8 ErrMin= 6.11D-05
 ErrMax= 6.11D-05  0.00D+00 EMaxC= 1.00D-01 BMatC= 1.46D-05 BMatP= 4.61D-05
 IDIUse=1 WtCom= 1.00D+00 WtEn= 0.00D+00
 Coeff-Com:  0.271D-03 0.294D-03-0.775D-02-0.293D-01-0.845D-01-0.135D+00
 Coeff-Com:  0.401D+00 0.854D+00
 Coeff:      0.271D-03 0.294D-03-0.775D-02-0.293D-01-0.845D-01-0.135D+00
 Coeff:      0.401D+00 0.854D+00
 Gap=     0.170 Goal=   None    Shift=    0.000
 Gap=     0.230 Goal=   None    Shift=    0.000
 RMSDP=1.61D-05 MaxDP=9.40D-04 DE=-3.68D-05 OVMax= 3.22D-03

 Cycle   9  Pass 0  IDiag  1:
 RMSU=  6.07D-06    CP:  9.69D-01  1.08D+00  7.20D-01  8.83D-01  1.23D+00
                    CP:  1.51D+00  1.56D+00  1.05D+00
 E= -1123.25520117853     Delta-E=       -0.000012338873 Rises=F Damp=F
 DIIS: error= 3.08D-05 at cycle   9 NSaved=   9.
 NSaved= 9 IEnMin= 9 EnMin= -1123.25520117853     IErMin= 9 ErrMin= 3.08D-05
 ErrMax= 3.08D-05  0.00D+00 EMaxC= 1.00D-01 BMatC= 2.26D-06 BMatP= 1.46D-05
 IDIUse=1 WtCom= 1.00D+00 WtEn= 0.00D+00
 Coeff-Com: -0.338D-03 0.110D-02 0.261D-02 0.454D-02-0.162D-01-0.102D+00
 Coeff-Com: -0.263D-01 0.289D+00 0.848D+00
 Coeff:     -0.338D-03 0.110D-02 0.261D-02 0.454D-02-0.162D-01-0.102D+00
 Coeff:     -0.263D-01 0.289D+00 0.848D+00
 Gap=     0.170 Goal=   None    Shift=    0.000
 Gap=     0.230 Goal=   None    Shift=    0.000
 RMSDP=5.44D-06 MaxDP=4.55D-04 DE=-1.23D-05 OVMax= 1.26D-03

 Initial convergence to 1.0D-05 achieved.  Increase integral accuracy.
 Cycle  10  Pass 1  IDiag  1:
 E= -1123.25521564784     Delta-E=       -0.000014469310 Rises=F Damp=F
 DIIS: error= 1.05D-04 at cycle   1 NSaved=   1.
 NSaved= 1 IEnMin= 1 EnMin= -1123.25521564784     IErMin= 1 ErrMin= 1.05D-04
 ErrMax= 1.05D-04  0.00D+00 EMaxC= 1.00D-01 BMatC= 5.49D-06 BMatP= 5.49D-06
 IDIUse=3 WtCom= 9.99D-01 WtEn= 1.05D-03
 Coeff-Com:  0.100D+01
 Coeff-En:   0.100D+01
 Coeff:      0.100D+01
 Gap=     0.170 Goal=   None    Shift=    0.000
 Gap=     0.230 Goal=   None    Shift=    0.000
 RMSDP=5.44D-06 MaxDP=4.55D-04 DE=-1.45D-05 OVMax= 3.49D-04

 Cycle  11  Pass 1  IDiag  1:
 RMSU=  4.25D-05    CP:  1.00D+00
 E= -1123.25521684788     Delta-E=       -0.000001200042 Rises=F Damp=F
 DIIS: error= 1.47D-05 at cycle   2 NSaved=   2.
 NSaved= 2 IEnMin= 2 EnMin= -1123.25521684788     IErMin= 2 ErrMin= 1.47D-05
 ErrMax= 1.47D-05  0.00D+00 EMaxC= 1.00D-01 BMatC= 8.85D-07 BMatP= 5.49D-06
 IDIUse=1 WtCom= 1.00D+00 WtEn= 0.00D+00
 Coeff-Com:  0.175D+00 0.825D+00
 Coeff:      0.175D+00 0.825D+00
 Gap=     0.170 Goal=   None    Shift=    0.000
 Gap=     0.230 Goal=   None    Shift=    0.000
 RMSDP=2.67D-06 MaxDP=1.67D-04 DE=-1.20D-06 OVMax= 3.88D-04

 Cycle  12  Pass 1  IDiag  1:
 RMSU=  2.53D-06    CP:  1.00D+00  1.02D+00
 E= -1123.25521693353     Delta-E=       -0.000000085650 Rises=F Damp=F
 DIIS: error= 1.38D-05 at cycle   3 NSaved=   3.
 NSaved= 3 IEnMin= 3 EnMin= -1123.25521693353     IErMin= 3 ErrMin= 1.38D-05
 ErrMax= 1.38D-05  0.00D+00 EMaxC= 1.00D-01 BMatC= 8.52D-07 BMatP= 8.85D-07
 IDIUse=1 WtCom= 1.00D+00 WtEn= 0.00D+00
 Coeff-Com: -0.214D-01 0.499D+00 0.523D+00
 Coeff:     -0.214D-01 0.499D+00 0.523D+00
 Gap=     0.170 Goal=   None    Shift=    0.000
 Gap=     0.230 Goal=   None    Shift=    0.000
 RMSDP=1.40D-06 MaxDP=9.92D-05 DE=-8.56D-08 OVMax= 1.41D-04

 Cycle  13  Pass 1  IDiag  1:
 RMSU=  8.43D-07    CP:  1.00D+00  1.03D+00  5.92D-01
 E= -1123.25521715940     Delta-E=       -0.000000225876 Rises=F Damp=F
 DIIS: error= 3.84D-06 at cycle   4 NSaved=   4.
 NSaved= 4 IEnMin= 4 EnMin= -1123.25521715940     IErMin= 4 ErrMin= 3.84D-06
 ErrMax= 3.84D-06  0.00D+00 EMaxC= 1.00D-01 BMatC= 3.38D-08 BMatP= 8.52D-07
 IDIUse=1 WtCom= 1.00D+00 WtEn= 0.00D+00
 Coeff-Com: -0.167D-01 0.123D+00 0.171D+00 0.722D+00
 Coeff:     -0.167D-01 0.123D+00 0.171D+00 0.722D+00
 Gap=     0.170 Goal=   None    Shift=    0.000
 Gap=     0.230 Goal=   None    Shift=    0.000
 RMSDP=4.14D-07 MaxDP=3.09D-05 DE=-2.26D-07 OVMax= 9.42D-05

 Cycle  14  Pass 1  IDiag  1:
 RMSU=  3.21D-07    CP:  1.00D+00  1.03D+00  6.58D-01  1.23D+00
 E= -1123.25521718188     Delta-E=       -0.000000022478 Rises=F Damp=F
 DIIS: error= 2.41D-06 at cycle   5 NSaved=   5.
 NSaved= 5 IEnMin= 5 EnMin= -1123.25521718188     IErMin= 5 ErrMin= 2.41D-06
 ErrMax= 2.41D-06  0.00D+00 EMaxC= 1.00D-01 BMatC= 1.30D-08 BMatP= 3.38D-08
 IDIUse=1 WtCom= 1.00D+00 WtEn= 0.00D+00
 Coeff-Com:  0.885D-02-0.304D+00-0.301D+00 0.253D+00 0.134D+01
 Coeff:      0.885D-02-0.304D+00-0.301D+00 0.253D+00 0.134D+01
 Gap=     0.170 Goal=   None    Shift=    0.000
 Gap=     0.230 Goal=   None    Shift=    0.000
 RMSDP=6.76D-07 MaxDP=6.56D-05 DE=-2.25D-08 OVMax= 1.69D-04

 Cycle  15  Pass 1  IDiag  1:
 RMSU=  2.39D-07    CP:  1.00D+00  1.03D+00  7.34D-01  1.91D+00  1.59D+00
 E= -1123.25521720232     Delta-E=       -0.000000020433 Rises=F Damp=F
 DIIS: error= 8.58D-07 at cycle   6 NSaved=   6.
 NSaved= 6 IEnMin= 6 EnMin= -1123.25521720232     IErMin= 6 ErrMin= 8.58D-07
 ErrMax= 8.58D-07  0.00D+00 EMaxC= 1.00D-01 BMatC= 2.14D-09 BMatP= 1.30D-08
 IDIUse=1 WtCom= 1.00D+00 WtEn= 0.00D+00
 Coeff-Com:  0.583D-02-0.144D+00-0.150D+00 0.133D-01 0.588D+00 0.687D+00
 Coeff:      0.583D-02-0.144D+00-0.150D+00 0.133D-01 0.588D+00 0.687D+00
 Gap=     0.170 Goal=   None    Shift=    0.000
 Gap=     0.230 Goal=   None    Shift=    0.000
 RMSDP=1.48D-07 MaxDP=1.33D-05 DE=-2.04D-08 OVMax= 3.59D-05

 Cycle  16  Pass 1  IDiag  1:
 RMSU=  8.70D-08    CP:  1.00D+00  1.03D+00  7.45D-01  2.02D+00  1.81D+00
                    CP:  1.09D+00
 E= -1123.25521720361     Delta-E=       -0.000000001299 Rises=F Damp=F
 DIIS: error= 2.88D-07 at cycle   7 NSaved=   7.
 NSaved= 7 IEnMin= 7 EnMin= -1123.25521720361     IErMin= 7 ErrMin= 2.88D-07
 ErrMax= 2.88D-07  0.00D+00 EMaxC= 1.00D-01 BMatC= 3.23D-10 BMatP= 2.14D-09
 IDIUse=1 WtCom= 1.00D+00 WtEn= 0.00D+00
 Coeff-Com:  0.276D-03 0.113D-01 0.754D-02-0.523D-01-0.689D-01 0.247D+00
 Coeff-Com:  0.855D+00
 Coeff:      0.276D-03 0.113D-01 0.754D-02-0.523D-01-0.689D-01 0.247D+00
 Coeff:      0.855D+00
 Gap=     0.170 Goal=   None    Shift=    0.000
 Gap=     0.230 Goal=   None    Shift=    0.000
 RMSDP=7.20D-08 MaxDP=8.32D-06 DE=-1.30D-09 OVMax= 1.39D-05

 Cycle  17  Pass 1  IDiag  1:
 RMSU=  3.74D-08    CP:  1.00D+00  1.03D+00  7.49D-01  2.05D+00  1.88D+00
                    CP:  1.29D+00  1.09D+00
 E= -1123.25521720384     Delta-E=       -0.000000000231 Rises=F Damp=F
 DIIS: error= 1.40D-07 at cycle   8 NSaved=   8.
 NSaved= 8 IEnMin= 8 EnMin= -1123.25521720384     IErMin= 8 ErrMin= 1.40D-07
 ErrMax= 1.40D-07  0.00D+00 EMaxC= 1.00D-01 BMatC= 7.59D-11 BMatP= 3.23D-10
 IDIUse=1 WtCom= 1.00D+00 WtEn= 0.00D+00
 Coeff-Com: -0.734D-03 0.269D-01 0.256D-01-0.265D-01-0.117D+00 0.841D-02
 Coeff-Com:  0.389D+00 0.694D+00
 Coeff:     -0.734D-03 0.269D-01 0.256D-01-0.265D-01-0.117D+00 0.841D-02
 Coeff:      0.389D+00 0.694D+00
 Gap=     0.170 Goal=   None    Shift=    0.000
 Gap=     0.230 Goal=   None    Shift=    0.000
 RMSDP=2.86D-08 MaxDP=1.99D-06 DE=-2.31D-10 OVMax= 6.97D-06

 Cycle  18  Pass 1  IDiag  1:
 RMSU=  1.93D-08    CP:  1.00D+00  1.03D+00  7.50D-01  2.06D+00  1.90D+00
                    CP:  1.34D+00  1.25D+00  1.15D+00
 E= -1123.25521720392     Delta-E=       -0.000000000071 Rises=F Damp=F
 DIIS: error= 9.30D-08 at cycle   9 NSaved=   9.
 NSaved= 9 IEnMin= 9 EnMin= -1123.25521720392     IErMin= 9 ErrMin= 9.30D-08
 ErrMax= 9.30D-08  0.00D+00 EMaxC= 1.00D-01 BMatC= 1.81D-11 BMatP= 7.59D-11
 IDIUse=1 WtCom= 1.00D+00 WtEn= 0.00D+00
 Coeff-Com: -0.389D-03 0.103D-01 0.100D-01-0.280D-02-0.395D-01-0.442D-01
 Coeff-Com:  0.307D-01 0.332D+00 0.704D+00
 Coeff:     -0.389D-03 0.103D-01 0.100D-01-0.280D-02-0.395D-01-0.442D-01
 Coeff:      0.307D-01 0.332D+00 0.704D+00
 Gap=     0.170 Goal=   None    Shift=    0.000
 Gap=     0.230 Goal=   None    Shift=    0.000
 RMSDP=1.68D-08 MaxDP=1.63D-06 DE=-7.09D-11 OVMax= 5.06D-06

 Cycle  19  Pass 1  IDiag  1:
 RMSU=  8.77D-09    CP:  1.00D+00  1.03D+00  7.50D-01  2.06D+00  1.90D+00
                    CP:  1.37D+00  1.31D+00  1.45D+00  1.24D+00
 E= -1123.25521720395     Delta-E=       -0.000000000030 Rises=F Damp=F
 DIIS: error= 7.60D-08 at cycle  10 NSaved=  10.
 NSaved=10 IEnMin=10 EnMin= -1123.25521720395     IErMin=10 ErrMin= 7.60D-08
 ErrMax= 7.60D-08  0.00D+00 EMaxC= 1.00D-01 BMatC= 5.52D-12 BMatP= 1.81D-11
 IDIUse=1 WtCom= 1.00D+00 WtEn= 0.00D+00
 Coeff-Com:  0.786D-04-0.424D-02-0.424D-02 0.668D-02 0.223D-01-0.233D-01
 Coeff-Com: -0.114D+00-0.101D+00 0.261D+00 0.957D+00
 Coeff:      0.786D-04-0.424D-02-0.424D-02 0.668D-02 0.223D-01-0.233D-01
 Coeff:     -0.114D+00-0.101D+00 0.261D+00 0.957D+00
 Gap=     0.170 Goal=   None    Shift=    0.000
 Gap=     0.230 Goal=   None    Shift=    0.000
 RMSDP=1.70D-08 MaxDP=1.30D-06 DE=-2.96D-11 OVMax= 5.37D-06

 Cycle  20  Pass 1  IDiag  1:
 RMSU=  5.58D-09    CP:  1.00D+00  1.03D+00  7.51D-01  2.06D+00  1.91D+00
                    CP:  1.38D+00  1.37D+00  1.70D+00  1.72D+00  1.62D+00
 E= -1123.25521720392     Delta-E=        0.000000000029 Rises=F Damp=F
 DIIS: error= 4.62D-08 at cycle  11 NSaved=  11.
 NSaved=11 IEnMin=10 EnMin= -1123.25521720395     IErMin=11 ErrMin= 4.62D-08
 ErrMax= 4.62D-08  0.00D+00 EMaxC= 1.00D-01 BMatC= 1.65D-12 BMatP= 5.52D-12
 IDIUse=1 WtCom= 1.00D+00 WtEn= 0.00D+00
 Coeff-Com:  0.151D-03-0.472D-02-0.482D-02 0.231D-02 0.210D-01 0.661D-02
 Coeff-Com: -0.414D-01-0.130D+00-0.162D+00 0.299D+00 0.101D+01
 Coeff:      0.151D-03-0.472D-02-0.482D-02 0.231D-02 0.210D-01 0.661D-02
 Coeff:     -0.414D-01-0.130D+00-0.162D+00 0.299D+00 0.101D+01
 Gap=     0.170 Goal=   None    Shift=    0.000
 Gap=     0.230 Goal=   None    Shift=    0.000
 RMSDP=1.34D-08 MaxDP=1.10D-06 DE= 2.91D-11 OVMax= 4.47D-06

 Cycle  21  Pass 1  IDiag  1:
 RMSU=  2.93D-09    CP:  1.00D+00  1.03D+00  7.51D-01  2.06D+00  1.91D+00
                    CP:  1.40D+00  1.41D+00  1.87D+00  2.09D+00  2.39D+00
                    CP:  1.65D+00
 E= -1123.25521720396     Delta-E=       -0.000000000042 Rises=F Damp=F
 DIIS: error= 2.92D-08 at cycle  12 NSaved=  12.
 NSaved=12 IEnMin=12 EnMin= -1123.25521720396     IErMin=12 ErrMin= 2.92D-08
 ErrMax= 2.92D-08  0.00D+00 EMaxC= 1.00D-01 BMatC= 7.80D-13 BMatP= 1.65D-12
 IDIUse=1 WtCom= 1.00D+00 WtEn= 0.00D+00
 Coeff-Com:  0.341D-04-0.356D-03-0.489D-03-0.163D-02 0.109D-02 0.107D-01
 Coeff-Com:  0.234D-01-0.152D-01-0.186D+00-0.239D+00 0.471D+00 0.937D+00
 Coeff:      0.341D-04-0.356D-03-0.489D-03-0.163D-02 0.109D-02 0.107D-01
 Coeff:      0.234D-01-0.152D-01-0.186D+00-0.239D+00 0.471D+00 0.937D+00
 Gap=     0.170 Goal=   None    Shift=    0.000
 Gap=     0.230 Goal=   None    Shift=    0.000
 RMSDP=9.84D-09 MaxDP=8.44D-07 DE=-4.18D-11 OVMax= 3.24D-06

 SCF Done:  E(UM062X) =  -1123.25521720     A.U. after   21 cycles
            NFock= 21  Conv=0.98D-08     -V/T= 2.0076
 <Sx>= 0.0000 <Sy>= 0.0000 <Sz>= 0.5000 <S**2>= 0.7694 S= 0.5097
 <L.S>= 0.000000000000E+00
 KE= 1.114816892992D+03 PE=-6.719043825401D+03 EE= 2.430122054995D+03
 Annihilation of the first spin contaminant:
 S**2 before annihilation     0.7694,   after     0.7503
 Leave Link  502 at Mon Jun  9 11:56:20 2025, MaxMem=  5368709120 cpu:            2659.6 elap:             133.7
 (Enter /opt/software/custom/apps/gaussian/x86_64-legacy/g16/l601.exe)
 Copying SCF densities to generalized density rwf, IOpCl= 1 IROHF=0.

 **********************************************************************

            Population analysis using the SCF Density.

 **********************************************************************

 Orbital symmetries:
 Alpha Orbitals:
       Occupied  (A) (A) (A) (A) (A) (A) (A) (A) (A) (A) (A) (A)
                 (A) (A) (A) (A) (A) (A) (A) (A) (A) (A) (A) (A)
                 (A) (A) (A) (A) (A) (A) (A) (A) (A) (A) (A) (A)
                 (A) (A) (A) (A) (A) (A) (A) (A) (A) (A) (A) (A)
                 (A) (A) (A) (A) (A) (A) (A) (A) (A) (A) (A) (A)
                 (A) (A) (A) (A) (A) (A) (A) (A) (A) (A) (A) (A)
                 (A) (A) (A) (A) (A) (A) (A) (A) (A) (A) (A) (A)
                 (A) (A) (A)
       Virtual   (A) (A) (A) (A) (A) (A) (A) (A) (A) (A) (A) (A)
                 (A) (A) (A) (A) (A) (A) (A) (A) (A) (A) (A) (A)
                 (A) (A) (A) (A) (A) (A) (A) (A) (A) (A) (A) (A)
                 (A) (A) (A) (A) (A) (A) (A) (A) (A) (A) (A) (A)
                 (A) (A) (A) (A) (A) (A) (A) (A) (A) (A) (A) (A)
                 (A) (A) (A) (A) (A) (A) (A) (A) (A) (A) (A) (A)
                 (A) (A) (A) (A) (A) (A) (A) (A) (A) (A) (A) (A)
                 (A) (A) (A) (A) (A) (A) (A) (A) (A) (A) (A) (A)
                 (A) (A) (A) (A) (A) (A) (A) (A) (A) (A) (A) (A)
                 (A) (A) (A) (A) (A) (A) (A) (A) (A) (A) (A) (A)
                 (A) (A) (A) (A) (A) (A) (A) (A) (A) (A) (A) (A)
                 (A) (A) (A) (A) (A) (A) (A) (A) (A) (A) (A) (A)
                 (A) (A) (A) (A) (A) (A) (A) (A) (A) (A) (A) (A)
                 (A) (A) (A) (A) (A) (A) (A) (A) (A) (A) (A) (A)
                 (A) (A) (A) (A) (A) (A) (A) (A) (A) (A) (A) (A)
                 (A) (A) (A) (A) (A) (A) (A) (A) (A) (A) (A) (A)
                 (A) (A) (A) (A) (A) (A) (A) (A) (A) (A) (A) (A)
                 (A) (A) (A) (A) (A) (A) (A) (A) (A) (A) (A) (A)
                 (A) (A) (A) (A) (A) (A) (A) (A) (A) (A) (A) (A)
                 (A) (A) (A) (A) (A) (A) (A) (A) (A) (A) (A) (A)
                 (A) (A) (A) (A) (A) (A) (A) (A) (A) (A) (A) (A)
                 (A) (A) (A) (A) (A) (A) (A) (A) (A) (A) (A) (A)
                 (A) (A) (A) (A) (A) (A) (A) (A) (A) (A) (A) (A)
                 (A) (A) (A) (A) (A) (A) (A) (A) (A) (A) (A) (A)
                 (A) (A) (A) (A) (A) (A) (A) (A) (A) (A) (A) (A)
                 (A) (A) (A) (A) (A) (A) (A) (A) (A)
 Beta  Orbitals:
       Occupied  (A) (A) (A) (A) (A) (A) (A) (A) (A) (A) (A) (A)
                 (A) (A) (A) (A) (A) (A) (A) (A) (A) (A) (A) (A)
                 (A) (A) (A) (A) (A) (A) (A) (A) (A) (A) (A) (A)
                 (A) (A) (A) (A) (A) (A) (A) (A) (A) (A) (A) (A)
                 (A) (A) (A) (A) (A) (A) (A) (A) (A) (A) (A) (A)
                 (A) (A) (A) (A) (A) (A) (A) (A) (A) (A) (A) (A)
                 (A) (A) (A) (A) (A) (A) (A) (A) (A) (A) (A) (A)
                 (A) (A)
       Virtual   (A) (A) (A) (A) (A) (A) (A) (A) (A) (A) (A) (A)
                 (A) (A) (A) (A) (A) (A) (A) (A) (A) (A) (A) (A)
                 (A) (A) (A) (A) (A) (A) (A) (A) (A) (A) (A) (A)
                 (A) (A) (A) (A) (A) (A) (A) (A) (A) (A) (A) (A)
                 (A) (A) (A) (A) (A) (A) (A) (A) (A) (A) (A) (A)
                 (A) (A) (A) (A) (A) (A) (A) (A) (A) (A) (A) (A)
                 (A) (A) (A) (A) (A) (A) (A) (A) (A) (A) (A) (A)
                 (A) (A) (A) (A) (A) (A) (A) (A) (A) (A) (A) (A)
                 (A) (A) (A) (A) (A) (A) (A) (A) (A) (A) (A) (A)
                 (A) (A) (A) (A) (A) (A) (A) (A) (A) (A) (A) (A)
                 (A) (A) (A) (A) (A) (A) (A) (A) (A) (A) (A) (A)
                 (A) (A) (A) (A) (A) (A) (A) (A) (A) (A) (A) (A)
                 (A) (A) (A) (A) (A) (A) (A) (A) (A) (A) (A) (A)
                 (A) (A) (A) (A) (A) (A) (A) (A) (A) (A) (A) (A)
                 (A) (A) (A) (A) (A) (A) (A) (A) (A) (A) (A) (A)
                 (A) (A) (A) (A) (A) (A) (A) (A) (A) (A) (A) (A)
                 (A) (A) (A) (A) (A) (A) (A) (A) (A) (A) (A) (A)
                 (A) (A) (A) (A) (A) (A) (A) (A) (A) (A) (A) (A)
                 (A) (A) (A) (A) (A) (A) (A) (A) (A) (A) (A) (A)
                 (A) (A) (A) (A) (A) (A) (A) (A) (A) (A) (A) (A)
                 (A) (A) (A) (A) (A) (A) (A) (A) (A) (A) (A) (A)
                 (A) (A) (A) (A) (A) (A) (A) (A) (A) (A) (A) (A)
                 (A) (A) (A) (A) (A) (A) (A) (A) (A) (A) (A) (A)
                 (A) (A) (A) (A) (A) (A) (A) (A) (A) (A) (A) (A)
                 (A) (A) (A) (A) (A) (A) (A) (A) (A) (A) (A) (A)
                 (A) (A) (A) (A) (A) (A) (A) (A) (A) (A)
 The electronic state is 2-A.
 Alpha  occ. eigenvalues --  -19.66232 -19.65669 -19.65537 -19.60467 -14.84596
 Alpha  occ. eigenvalues --  -14.81444 -14.72848 -10.67652 -10.65423 -10.59767
 Alpha  occ. eigenvalues --  -10.59580 -10.59554 -10.59426 -10.59201 -10.58934
 Alpha  occ. eigenvalues --  -10.57584 -10.56991 -10.56912 -10.56624 -10.55145
 Alpha  occ. eigenvalues --  -10.54979 -10.54288 -10.53660 -10.53228  -1.20937
 Alpha  occ. eigenvalues --   -1.17954  -1.17506  -1.17337  -1.11671  -1.10723
 Alpha  occ. eigenvalues --   -0.99173  -0.95240  -0.93292  -0.91635  -0.84876
 Alpha  occ. eigenvalues --   -0.84018  -0.83263  -0.81641  -0.79493  -0.78233
 Alpha  occ. eigenvalues --   -0.75583  -0.73277  -0.71240  -0.70221  -0.68074
 Alpha  occ. eigenvalues --   -0.66258  -0.64923  -0.62295  -0.60982  -0.59949
 Alpha  occ. eigenvalues --   -0.58344  -0.57359  -0.55511  -0.54575  -0.54462
 Alpha  occ. eigenvalues --   -0.54024  -0.53747  -0.53115  -0.52561  -0.50694
 Alpha  occ. eigenvalues --   -0.50356  -0.50184  -0.49479  -0.49072  -0.48287
 Alpha  occ. eigenvalues --   -0.47917  -0.47161  -0.46001  -0.45595  -0.45212
 Alpha  occ. eigenvalues --   -0.44612  -0.43647  -0.42937  -0.42253  -0.41772
 Alpha  occ. eigenvalues --   -0.38402  -0.37821  -0.36977  -0.36010  -0.34879
 Alpha  occ. eigenvalues --   -0.34406  -0.34230  -0.31956  -0.31220  -0.26816
 Alpha  occ. eigenvalues --   -0.25402  -0.15432
 Alpha virt. eigenvalues --    0.01604   0.03165   0.06499   0.07916   0.10287
 Alpha virt. eigenvalues --    0.11065   0.12032   0.13575   0.14296   0.15389
 Alpha virt. eigenvalues --    0.15993   0.16198   0.18189   0.19089   0.19395
 Alpha virt. eigenvalues --    0.19538   0.19930   0.20559   0.20688   0.21650
 Alpha virt. eigenvalues --    0.21763   0.21885   0.22352   0.22931   0.24452
 Alpha virt. eigenvalues --    0.24977   0.25696   0.26453   0.26479   0.27405
 Alpha virt. eigenvalues --    0.28282   0.29800   0.31324   0.32342   0.34035
 Alpha virt. eigenvalues --    0.35081   0.35851   0.38319   0.38686   0.40063
 Alpha virt. eigenvalues --    0.41222   0.42031   0.43390   0.44359   0.46228
 Alpha virt. eigenvalues --    0.48603   0.49149   0.52488   0.52789   0.53323
 Alpha virt. eigenvalues --    0.53837   0.55101   0.55519   0.56180   0.56433
 Alpha virt. eigenvalues --    0.57159   0.57443   0.57767   0.58688   0.59414
 Alpha virt. eigenvalues --    0.59785   0.60323   0.60667   0.62177   0.62514
 Alpha virt. eigenvalues --    0.63757   0.64272   0.65583   0.65889   0.66112
 Alpha virt. eigenvalues --    0.66418   0.68333   0.68946   0.69276   0.69824
 Alpha virt. eigenvalues --    0.70378   0.71076   0.72056   0.73655   0.74239
 Alpha virt. eigenvalues --    0.74419   0.75785   0.76841   0.77603   0.77828
 Alpha virt. eigenvalues --    0.80457   0.80738   0.81210   0.81740   0.83018
 Alpha virt. eigenvalues --    0.83509   0.85625   0.86477   0.87621   0.88781
 Alpha virt. eigenvalues --    0.89576   0.90512   0.90892   0.91288   0.91788
 Alpha virt. eigenvalues --    0.92351   0.92677   0.93452   0.94217   0.94520
 Alpha virt. eigenvalues --    0.94588   0.95051   0.95869   0.96360   0.97202
 Alpha virt. eigenvalues --    0.97865   0.98711   0.99167   0.99955   1.00312
 Alpha virt. eigenvalues --    1.00565   1.02213   1.02334   1.03044   1.03844
 Alpha virt. eigenvalues --    1.04310   1.04901   1.05789   1.07656   1.08713
 Alpha virt. eigenvalues --    1.10866   1.11578   1.12037   1.12898   1.14743
 Alpha virt. eigenvalues --    1.15067   1.16596   1.16818   1.19452   1.20460
 Alpha virt. eigenvalues --    1.21020   1.21993   1.23498   1.24989   1.26233
 Alpha virt. eigenvalues --    1.26791   1.28094   1.29190   1.31234   1.32029
 Alpha virt. eigenvalues --    1.33277   1.34676   1.37026   1.37471   1.38457
 Alpha virt. eigenvalues --    1.39079   1.41423   1.41862   1.43373   1.43997
 Alpha virt. eigenvalues --    1.44946   1.46192   1.47215   1.48964   1.49741
 Alpha virt. eigenvalues --    1.49970   1.51454   1.52031   1.53429   1.54625
 Alpha virt. eigenvalues --    1.55890   1.56514   1.57657   1.58141   1.58860
 Alpha virt. eigenvalues --    1.60164   1.61112   1.62752   1.68978   1.71898
 Alpha virt. eigenvalues --    1.74753   1.75864   1.77661   1.79145   1.80062
 Alpha virt. eigenvalues --    1.81761   1.82503   1.83570   1.85427   1.86159
 Alpha virt. eigenvalues --    1.86371   1.86742   1.88010   1.89452   1.90377
 Alpha virt. eigenvalues --    1.91837   1.92198   1.93116   1.94017   1.94467
[...]
    32  H(1)              -0.00025      -1.12469      -0.40132      -0.37516
    33  H(1)              -0.00202      -9.02896      -3.22176      -3.01174
    34  H(1)              -0.00025      -1.13827      -0.40616      -0.37969
    35  H(1)              -0.00158      -7.06350      -2.52043      -2.35613
    36  H(1)               0.00023       1.02157       0.36452       0.34076
    37  H(1)              -0.00029      -1.29903      -0.46352      -0.43331
    38  H(1)              -0.00037      -1.66102      -0.59269      -0.55406
    39  H(1)               0.00018       0.81365       0.29033       0.27140
    40  H(1)              -0.00017      -0.75710      -0.27015      -0.25254
    41  H(1)               0.00033       1.46586       0.52306       0.48896
    42  H(1)              -0.00148      -6.60674      -2.35745      -2.20377
 --------------------------------------------------------
       Center         ----  Spin Dipole Couplings  ----
                      3XX-RR        3YY-RR        3ZZ-RR
 --------------------------------------------------------
     1   Atom        0.000404     -0.000209     -0.000195
     2   Atom        0.001512     -0.001583      0.000071
     3   Atom        0.001636     -0.001192     -0.000444
     4   Atom       -0.003511      0.005250     -0.001739
     5   Atom        0.001811     -0.001160     -0.000650
     6   Atom       -0.000423      0.000745     -0.000322
     7   Atom       -0.002590      0.013739     -0.011149
     8   Atom        0.033704     -0.017888     -0.015816
     9   Atom       -0.018107      0.048083     -0.029976
    10   Atom        0.006998     -0.005606     -0.001392
    11   Atom       -0.001880      0.002430     -0.000550
    12   Atom       -0.258181     -0.264144      0.522325
    13   Atom       -0.155228     -0.186428      0.341656
    14   Atom        0.000047      0.000928     -0.000975
    15   Atom        0.032932     -0.017841     -0.015091
    16   Atom        0.001790     -0.216159      0.214369
    17   Atom        0.036703      0.041386     -0.078089
    18   Atom        0.002824      0.003447     -0.006271
    19   Atom       -0.114418     -0.165937      0.280355
    20   Atom       -0.007547     -0.028585      0.036131
    21   Atom       -0.004722     -0.011675      0.016397
    22   Atom        0.012035     -0.001021     -0.011014
    23   Atom        0.000155      0.003381     -0.003536
    24   Atom       -0.060892     -0.062401      0.123294
    25   Atom        0.000296     -0.000164     -0.000132
    26   Atom        0.000464     -0.000225     -0.000239
    27   Atom        0.000420     -0.000217     -0.000203
    28   Atom        0.000987     -0.000371     -0.000616
    29   Atom        0.000846     -0.000487     -0.000359
    30   Atom        0.001516     -0.001610      0.000094
    31   Atom        0.000534     -0.000719      0.000185
    32   Atom        0.001099      0.001434     -0.002533
    33   Atom        0.000743      0.000707     -0.001449
    34   Atom        0.000739      0.002137     -0.002876
    35   Atom        0.003017      0.000934     -0.003951
    36   Atom        0.002716     -0.002485     -0.000231
    37   Atom       -0.000709     -0.001939      0.002648
    38   Atom       -0.001049     -0.001359      0.002408
    39   Atom       -0.000593      0.002769     -0.002177
    40   Atom       -0.001456      0.003796     -0.002340
    41   Atom        0.000009      0.002036     -0.002045
    42   Atom       -0.001899      0.007227     -0.005328
 --------------------------------------------------------
                        XY            XZ            YZ
 --------------------------------------------------------
     1   Atom       -0.000057     -0.000135     -0.000045
     2   Atom        0.000292     -0.000554      0.001188
     3   Atom        0.000612     -0.000379      0.001310
     4   Atom       -0.000761      0.000820     -0.005817
     5   Atom        0.000009      0.000706      0.000646
     6   Atom        0.001421      0.000300     -0.004351
     7   Atom        0.011035     -0.000345     -0.003948
     8   Atom       -0.004307      0.005188      0.010115
     9   Atom       -0.023164     -0.000991     -0.011278
    10   Atom        0.000426      0.000095      0.003003
    11   Atom        0.001338     -0.001737     -0.004800
    12   Atom       -0.002926      0.023255     -0.024360
    13   Atom       -0.017846     -0.161459      0.052959
    14   Atom       -0.015134     -0.021844      0.015947
    15   Atom        0.003189     -0.031244     -0.008210
    16   Atom        0.027566     -0.302327     -0.041285
    17   Atom       -0.009639      0.039412      0.007932
    18   Atom        0.003065      0.003112      0.001402
    19   Atom        0.019654     -0.153638     -0.065003
    20   Atom        0.020135     -0.064660     -0.019776
    21   Atom       -0.001322      0.012821     -0.002411
    22   Atom        0.002018     -0.009260     -0.000543
    23   Atom       -0.002706      0.000616      0.000845
    24   Atom       -0.000551     -0.036001     -0.012525
    25   Atom       -0.000018     -0.000124      0.000011
    26   Atom       -0.000060     -0.000059      0.000008
    27   Atom        0.000092     -0.000146     -0.000016
    28   Atom        0.000496      0.000592     -0.000061
    29   Atom        0.000493      0.000536      0.000225
    30   Atom        0.002115      0.003087      0.002408
    31   Atom       -0.000172     -0.000896      0.000358
    32   Atom       -0.002981      0.002540     -0.002104
    33   Atom        0.001718      0.002934      0.001559
    34   Atom        0.002875      0.001121      0.000922
    35   Atom        0.002503     -0.000036     -0.000139
    36   Atom       -0.000752      0.002859     -0.000465
    37   Atom        0.000449      0.003145      0.003227
    38   Atom       -0.000916      0.002371     -0.003995
    39   Atom       -0.001987      0.000766     -0.001293
    40   Atom       -0.002158     -0.000037      0.000353
    41   Atom       -0.002462     -0.000497      0.001377
    42   Atom        0.011258      0.000623      0.002801
 --------------------------------------------------------


 ---------------------------------------------------------------------------------
              Anisotropic Spin Dipole Couplings in Principal Axis System
 ---------------------------------------------------------------------------------

       Atom             a.u.   MegaHertz   Gauss  10(-4) cm-1        Axes

              Baa    -0.0003    -0.037    -0.013    -0.012  0.1998  0.6654  0.7193
     1 C(13)  Bbb    -0.0002    -0.022    -0.008    -0.007 -0.0835  0.7430 -0.6641
              Bcc     0.0004     0.059     0.021     0.020  0.9763 -0.0727 -0.2040
 
              Baa    -0.0023     0.165     0.059     0.055 -0.1364  0.8705 -0.4729
     2 O(17)  Bbb     0.0006    -0.041    -0.015    -0.014  0.3234  0.4904  0.8093
              Bcc     0.0017    -0.123    -0.044    -0.041  0.9364 -0.0426 -0.3484
 
              Baa    -0.0023    -0.310    -0.111    -0.103 -0.1789  0.7880 -0.5892
     3 C(13)  Bbb     0.0005     0.073     0.026     0.024 -0.0512  0.5906  0.8054
              Bcc     0.0018     0.237     0.085     0.079  0.9825  0.1742 -0.0653
 
              Baa    -0.0051    -0.685    -0.245    -0.229 -0.2182  0.4657  0.8576
     4 C(13)  Bbb    -0.0035    -0.474    -0.169    -0.158  0.9720  0.1825  0.1482
              Bcc     0.0086     1.159     0.413     0.387 -0.0875  0.8659 -0.4925
 
              Baa    -0.0016    -0.221    -0.079    -0.074  0.1201  0.7921 -0.5984
     5 C(13)  Bbb    -0.0004    -0.049    -0.017    -0.016 -0.2476  0.6076  0.7546
              Bcc     0.0020     0.270     0.096     0.090  0.9614  0.0575  0.2691
 
              Baa    -0.0045    -0.605    -0.216    -0.202 -0.2795  0.6559  0.7012
     6 C(13)  Bbb    -0.0002    -0.031    -0.011    -0.010  0.9450  0.0586  0.3218
              Bcc     0.0047     0.637     0.227     0.212  0.1700  0.7525 -0.6362
 
              Baa    -0.0121    -0.468    -0.167    -0.156 -0.2588  0.2528  0.9323
     7 N(14)  Bbb    -0.0076    -0.294    -0.105    -0.098  0.8592 -0.3808  0.3418
              Bcc     0.0197     0.761     0.272     0.254  0.4414  0.8895 -0.1186
 
              Baa    -0.0277    -3.723    -1.329    -1.242  0.1080  0.7346 -0.6698
     8 C(13)  Bbb    -0.0067    -0.900    -0.321    -0.300 -0.0226  0.6754  0.7371
              Bcc     0.0345     4.623     1.650     1.542  0.9939 -0.0645  0.0896
 
              Baa    -0.0335    -1.293    -0.461    -0.431  0.4160  0.2393  0.8773
     9 N(14)  Bbb    -0.0231    -0.892    -0.318    -0.298  0.8611  0.2065 -0.4647
              Bcc     0.0567     2.185     0.780     0.729 -0.2924  0.9487 -0.1202
 
              Baa    -0.0072    -0.963    -0.344    -0.321 -0.0236  0.8874 -0.4604
    10 C(13)  Bbb     0.0002     0.021     0.008     0.007 -0.0409  0.4593  0.8873
              Bcc     0.0070     0.942     0.336     0.314  0.9989  0.0397  0.0255
 
              Baa    -0.0043    -0.573    -0.205    -0.191  0.2945  0.5169  0.8038
    11 C(13)  Bbb    -0.0022    -0.299    -0.107    -0.100  0.9238 -0.3694 -0.1009
              Bcc     0.0065     0.872     0.311     0.291  0.2448  0.7722 -0.5863
 
              Baa    -0.2656   -10.244    -3.655    -3.417  0.3107  0.9503  0.0202
    12 N(14)  Bbb    -0.2582    -9.957    -3.553    -3.321  0.9501 -0.3098 -0.0380
              Bcc     0.5238    20.201     7.208     6.738  0.0298 -0.0310  0.9991
 
              Baa    -0.2034   -27.300    -9.741    -9.106  0.9489  0.1726  0.2643
    13 C(13)  Bbb    -0.1914   -25.688    -9.166    -8.569 -0.1395  0.9803 -0.1396
              Bcc     0.3949    52.989    18.908    17.675 -0.2832  0.0956  0.9543
 
              Baa    -0.0224    -3.002    -1.071    -1.001  0.6725 -0.0676  0.7370
    14 C(13)  Bbb    -0.0130    -1.748    -0.624    -0.583  0.4365  0.8405 -0.3211
              Bcc     0.0354     4.750     1.695     1.584  0.5977 -0.5376 -0.5947
 
              Baa    -0.0329     2.382     0.850     0.795  0.3818  0.3784  0.8433
    15 O(17)  Bbb    -0.0160     1.161     0.414     0.387 -0.2510  0.9205 -0.2994
              Bcc     0.0490    -3.543    -1.264    -1.182  0.8895  0.0973 -0.4464
 
              Baa    -0.2202    15.933     5.685     5.315  0.0974  0.9821  0.1611
    16 O(17)  Bbb    -0.2121    15.351     5.478     5.120  0.8114 -0.1720  0.5585
              Bcc     0.4323   -31.284   -11.163   -10.435 -0.5763 -0.0763  0.8137
 
              Baa    -0.0911   -12.230    -4.364    -4.080 -0.2991 -0.0787  0.9510
    17 C(13)  Bbb     0.0380     5.093     1.817     1.699  0.4843  0.8462  0.2223
              Bcc     0.0532     7.137     2.547     2.381  0.8222 -0.5270  0.2150
 
              Baa    -0.0073    -0.973    -0.347    -0.325 -0.2823 -0.0447  0.9583
    18 C(13)  Bbb     0.0003     0.038     0.014     0.013 -0.6711  0.7230 -0.1640
              Bcc     0.0070     0.935     0.334     0.312  0.6855  0.6894  0.2341
 
              Baa    -0.1757   -23.581    -8.414    -7.866  0.2235  0.9516  0.2109
    19 C(13)  Bbb    -0.1664   -22.334    -7.969    -7.450  0.9203 -0.2773  0.2761
              Bcc     0.3422    45.915    16.384    15.316 -0.3212 -0.1324  0.9377
 
              Baa    -0.0551     3.985     1.422     1.329  0.8172 -0.2251  0.5306
    20 O(17)  Bbb    -0.0340     2.464     0.879     0.822  0.0548  0.9468  0.3173
              Bcc     0.0891    -6.449    -2.301    -2.151 -0.5737 -0.2302  0.7860
 
              Baa    -0.0119    -1.599    -0.571    -0.533  0.1631  0.9866  0.0101
    21 C(13)  Bbb    -0.0107    -1.442    -0.515    -0.481  0.8900 -0.1427 -0.4330
              Bcc     0.0227     3.042     1.085     1.015  0.4258 -0.0797  0.9013
 
              Baa    -0.0143    -1.916    -0.684    -0.639  0.3328 -0.0121  0.9429
    22 C(13)  Bbb    -0.0013    -0.172    -0.061    -0.057 -0.1137  0.9921  0.0528
              Bcc     0.0156     2.087     0.745     0.696  0.9361  0.1247 -0.3288
 
              Baa    -0.0039    -0.525    -0.187    -0.175 -0.2834 -0.2134  0.9349
    23 C(13)  Bbb    -0.0010    -0.138    -0.049    -0.046  0.8264  0.4403  0.3510
              Bcc     0.0049     0.663     0.237     0.221 -0.4865  0.8721  0.0516
 
              Baa    -0.0691    -9.268    -3.307    -3.091  0.8793  0.4354  0.1929
    24 C(13)  Bbb    -0.0618    -8.291    -2.959    -2.766 -0.4392  0.8980 -0.0247
              Bcc     0.1309    17.559     6.265     5.857 -0.1840 -0.0631  0.9809
 
              Baa    -0.0002    -0.091    -0.033    -0.030  0.1588 -0.6972  0.6991
    25 H(1)   Bbb    -0.0002    -0.085    -0.030    -0.028  0.2107  0.7157  0.6659
              Bcc     0.0003     0.176     0.063     0.059  0.9646 -0.0415 -0.2605
 
              Baa    -0.0002    -0.130    -0.047    -0.043  0.0645 -0.2024  0.9772
    26 H(1)   Bbb    -0.0002    -0.122    -0.044    -0.041  0.1010  0.9755  0.1954
              Bcc     0.0005     0.253     0.090     0.084  0.9928 -0.0861 -0.0834
 
              Baa    -0.0002    -0.127    -0.045    -0.042  0.2538 -0.4804  0.8395
    27 H(1)   Bbb    -0.0002    -0.121    -0.043    -0.041 -0.0103  0.8665  0.4990
              Bcc     0.0005     0.249     0.089     0.083  0.9672  0.1354 -0.2150
 
              Baa    -0.0009    -0.487    -0.174    -0.163 -0.3690  0.4303  0.8238
    28 H(1)   Bbb    -0.0004    -0.209    -0.075    -0.070 -0.0979  0.8634 -0.4949
              Bcc     0.0013     0.697     0.249     0.232  0.9243  0.2633  0.2765
 
              Baa    -0.0007    -0.357    -0.127    -0.119 -0.1601  0.9093 -0.3840
    29 H(1)   Bbb    -0.0006    -0.295    -0.105    -0.098 -0.4294  0.2862  0.8566
              Bcc     0.0012     0.651     0.232     0.217  0.8888  0.3020  0.3446
 
              Baa    -0.0033    -1.768    -0.631    -0.590  0.0262  0.8051 -0.5926
    30 H(1)   Bbb    -0.0021    -1.114    -0.397    -0.371  0.7198 -0.4266 -0.5477
              Bcc     0.0054     2.882     1.028     0.961  0.6937  0.4122  0.5906
 
              Baa    -0.0009    -0.463    -0.165    -0.154 -0.1805  0.8743 -0.4506
    31 H(1)   Bbb    -0.0005    -0.250    -0.089    -0.083  0.6364  0.4531  0.6243
              Bcc     0.0013     0.713     0.254     0.238  0.7500 -0.1741 -0.6381
 
              Baa    -0.0039    -2.090    -0.746    -0.697 -0.3731  0.1521  0.9153
    32 H(1)   Bbb    -0.0017    -0.885    -0.316    -0.295  0.6605  0.7363  0.1469
              Bcc     0.0056     2.976     1.062     0.993 -0.6516  0.6593 -0.3751
 
              Baa    -0.0035    -1.874    -0.669    -0.625 -0.5409 -0.0889  0.8364
    33 H(1)   Bbb    -0.0008    -0.404    -0.144    -0.135 -0.4988  0.8346 -0.2338
              Bcc     0.0043     2.278     0.813     0.760  0.6773  0.5436  0.4957
 
              Baa    -0.0032    -1.707    -0.609    -0.569 -0.2528 -0.0308  0.9670
    34 H(1)   Bbb    -0.0015    -0.782    -0.279    -0.261  0.7473 -0.6411  0.1750
              Bcc     0.0047     2.488     0.888     0.830  0.6146  0.7669  0.1851
 
              Baa    -0.0040    -2.110    -0.753    -0.704 -0.0062  0.0316  0.9995
    35 H(1)   Bbb    -0.0007    -0.391    -0.139    -0.130 -0.5552  0.8312 -0.0297
              Bcc     0.0047     2.501     0.892     0.834  0.8317  0.5551 -0.0124
 
              Baa    -0.0026    -1.385    -0.494    -0.462  0.1011  0.9922  0.0731
    36 H(1)   Bbb    -0.0020    -1.053    -0.376    -0.351 -0.5217 -0.0097  0.8531
              Bcc     0.0046     2.438     0.870     0.813  0.8471 -0.1244  0.5166
 
              Baa    -0.0041    -2.176    -0.776    -0.726  0.4090  0.7333 -0.5431
    37 H(1)   Bbb    -0.0017    -0.885    -0.316    -0.295  0.8060 -0.5694 -0.1618
              Bcc     0.0057     3.061     1.092     1.021  0.4279  0.3715  0.8239
 
              Baa    -0.0040    -2.135    -0.762    -0.712 -0.2143  0.7914  0.5725
    38 H(1)   Bbb    -0.0018    -0.984    -0.351    -0.328  0.9153  0.3674 -0.1652
              Bcc     0.0058     3.119     1.113     1.040  0.3411 -0.4886  0.8031
 
              Baa    -0.0026    -1.364    -0.487    -0.455 -0.2234  0.1504  0.9631
    39 H(1)   Bbb    -0.0015    -0.797    -0.284    -0.266  0.8820  0.4518  0.1341
              Bcc     0.0041     2.161     0.771     0.721 -0.4149  0.8794 -0.2336
 
              Baa    -0.0024    -1.280    -0.457    -0.427 -0.4046 -0.1919  0.8941
    40 H(1)   Bbb    -0.0022    -1.167    -0.416    -0.389  0.8504  0.2805  0.4451
              Bcc     0.0046     2.447     0.873     0.816 -0.3362  0.9405  0.0497
 
              Baa    -0.0025    -1.341    -0.479    -0.447 -0.1891 -0.3768  0.9068
    41 H(1)   Bbb    -0.0015    -0.803    -0.287    -0.268  0.8268  0.4372  0.3540
              Bcc     0.0040     2.144     0.765     0.715 -0.5298  0.8167  0.2289
 
              Baa    -0.0097    -5.202    -1.856    -1.735  0.7886 -0.5636  0.2458
    42 H(1)   Bbb    -0.0054    -2.887    -1.030    -0.963 -0.2759  0.0329  0.9606
              Bcc     0.0152     8.089     2.886     2.698  0.5495  0.8254  0.1295
 

 ---------------------------------------------------------------------------------

 No NMR shielding tensors so no spin-rotation constants.
 Leave Link  601 at Mon Jun  9 12:37:45 2025, MaxMem=  5368709120 cpu:               5.6 elap:               0.3
 (Enter /opt/software/custom/apps/gaussian/x86_64-legacy/g16/l9999.exe)
 1\1\GINC-C02\FOpt\UM062X\6-31G(d)\C17H18N3O4(2)\PHFMATIAS\09-Jun-2025\
 0\\#p opt M062X/6-31g(d)\\C17H18N3O4\\0,2\C,6.9243271655,0.1128745081,
 1.0151856364\O,5.6441262783,-0.3616347672,1.3570755447\C,4.5766438957,
 0.1285817514,0.6625312092\C,4.695613063,1.0755286077,-0.3728798582\C,3
 .5712997299,1.5483330659,-1.0443130855\C,2.3382147572,1.0405066386,-0.
 6645489103\N,1.0361983832,1.2838282499,-1.0834465669\C,0.2435256646,0.
 4547048767,-0.3315404187\N,0.8739525514,-0.2486845832,0.5576240303\C,2
 .2083526218,0.0855082748,0.3674440543\C,3.3346159073,-0.3721050028,1.0
 443576268\N,-1.1428799345,0.4322405109,-0.5560879874\C,-1.8238116532,-
 0.805051053,-0.5938367885\C,-1.1418701235,-1.9477195617,-1.1869955118\
 O,-0.0676739598,-1.5928840372,-1.9434003473\O,-1.4779759283,-3.1113437
 027,-1.079883924\C,-3.1812836147,-0.8490073546,-0.2192067089\C,-3.9543
 177593,-2.1413492804,-0.2092505284\C,-3.8271696344,0.3393878409,0.0831
 12619\O,-5.1514440795,0.3591321264,0.4485863071\C,-5.3499272848,0.1319
 721935,1.8373353614\C,-3.1643840762,1.6089336682,-0.0360441285\C,-3.93
 66694954,2.8786993348,0.176911102\C,-1.8463069883,1.612137525,-0.33776
 95272\H,7.6228638447,-0.3953920701,1.6800351689\H,7.1774191572,-0.1251
 024038,-0.0257281264\H,7.0053235033,1.1968888037,1.1652582076\H,5.6691
 010369,1.4531288567,-0.6598835388\H,3.6712570529,2.2835453504,-1.83602
 27217\H,0.7533167864,1.6824622003,-1.9668081172\H,3.2629450926,-1.0991
 801379,1.8446899974\H,0.3332339951,-2.4321792673,-2.225252841\H,-3.565
 4041844,-2.8213474981,0.5527485147\H,-5.009170731,-1.9362184145,-0.024
 9082605\H,-3.8471001355,-2.6612502854,-1.1630653318\H,-6.4235590205,0.
 2042010284,2.017590616\H,-4.9930331758,-0.8636056648,2.1267014689\H,-4
 .8236056415,0.884436375,2.4376574453\H,-4.3639885378,2.9157541019,1.18
 41098494\H,-3.2958916495,3.7535988078,0.0433403062\H,-4.7725842374,2.9
 437975402,-0.5256095084\H,-1.2533786416,2.5191728473,-0.3839123282\\Ve
 rsion=EM64L-G16RevB.01\State=2-A\HF=-1123.303927\S2=0.765932\S2-1=0.\S
 2A=0.75016\RMSD=7.398e-09\RMSF=6.405e-06\Dipole=0.445049,1.813057,-0.5
 901943\Quadrupole=10.2307756,-7.0848822,-3.1458934,-0.5449042,-10.1835
 511,-2.6448388\PG=C01 [X(C17H18N3O4)]\\@


 CHRISTMAS IS ON TOP OF A STEEP HILL.
 THE CLOSER YOU GET, THE STEEPER THE HILL IS.
          -- LINUS, OF PEANUTS
 Job cpu time:       0 days 14 hours 25 minutes  8.1 seconds.
 Elapsed time:       0 days  0 hours 43 minutes 38.2 seconds.
 File lengths (MBytes):  RWF=    184 Int=      0 D2E=      0 Chk=     17 Scr=      1
 Normal termination of Gaussian 16 at Mon Jun  9 12:37:45 2025.
